<?xml version="1.0"?>
<VTKFile type="PolyData" version="0.1" byte_order="LittleEndian" compressor="vtkZLibDataCompressor">
	<PolyData>
		<Piece NumberOfPoints="200" NumberOfVerts="0" NumberOfLines="0" NumberOfStrips="0" NumberOfPolys="227">
		<PointData Normals="Normals">
		<DataArray type="Float32" Name="Normals" NumberOfComponents="3" format="ascii">
			 0.876707 -0.466589 -0.116960
			 0.748866  0.188191 -0.635440
			 0.843539  0.529304  0.090990
			 0.513953  0.854096 -0.079832
			 0.067294  0.174436 -0.982366
			 0.168152  0.896903 -0.409011
			-0.314895  0.158676 -0.935769
			-0.085763 -0.701226 -0.707762
			 0.195524 -0.881884 -0.429011
			 0.051214 -0.994539 -0.090931
			 0.788373 -0.595935  0.152742
			 0.861993  0.420253  0.283469
			-0.099941 -0.938685 -0.329972
			-0.095477 -0.995358  0.012147
			 0.008803 -0.997323 -0.072592
			-0.257337 -0.962895 -0.081304
			 0.033945 -0.983626 -0.176996
			-0.414248 -0.897327 -0.152322
			 0.025814 -0.964657 -0.262241
			-0.403164 -0.878583 -0.256029
			-0.025227 -0.963458 -0.266671
			-0.080830 -0.980441 -0.179447
			-0.095874 -0.974315 -0.203762
			-0.282733 -0.934371  0.216822
			-0.323674 -0.938172 -0.122750
			-0.168903 -0.924578 -0.341509
			 0.079985 -0.937170 -0.339581
			 0.313883 -0.883170 -0.348552
			 0.558315 -0.785090 -0.268174
			 0.755390 -0.654424 -0.033390
			-0.287015 -0.950172 -0.121641
			-0.534550 -0.837668  0.112105
			-0.732495 -0.632518  0.251737
			-0.572244 -0.344221 -0.744345
			-0.791882 -0.357672 -0.494969
			-0.874874 -0.460222  0.150967
			-0.908137 -0.418335  0.016830
			-0.685794 -0.688511  0.235880
			-0.220875 -0.956126 -0.192449
			-0.493409 -0.787188  0.369978
			-0.374282 -0.926528 -0.038185
			-0.591619 -0.688915  0.418786
			-0.568364 -0.799199  0.195559
			-0.701706 -0.592442  0.395754
			-0.641070 -0.753446  0.146112
			-0.792197 -0.494518  0.357598
			-0.911370 -0.325754  0.251573
			-0.640885 -0.767240  0.024681
			-0.704693 -0.709107 -0.023969
			-0.949908 -0.284223  0.129969
			-0.688543 -0.725076  0.013165
			-0.944728 -0.326389  0.030983
			-0.868259 -0.483857 -0.109582
			-0.687411 -0.679413 -0.256641
			-0.672955 -0.623595 -0.397819
			-0.554180 -0.701716 -0.447749
			-0.610124 -0.769267 -0.189675
			-0.474446 -0.873742 -0.107129
			-0.563268 -0.811237  0.156917
			-0.240073 -0.916613 -0.319664
			-0.231015 -0.951689 -0.202287
			-0.197095 -0.951286 -0.237085
			-0.181518 -0.950481 -0.252263
			-0.142086 -0.967010 -0.211431
			-0.661936 -0.738512  0.128220
			-0.035978 -0.964937 -0.260006
			-0.615279 -0.785619  0.065072
			-0.081465 -0.970361 -0.227517
			-0.044515 -0.972785 -0.227391
			 0.118990 -0.970743 -0.208564
			 0.145478 -0.977077 -0.155424
			 0.243470 -0.785482 -0.568983
			 0.446089 -0.604839 -0.659678
			 0.510959 -0.484117 -0.710319
			 0.547800 -0.395713 -0.737107
			 0.638735 -0.408948 -0.651751
			 0.682271 -0.488450 -0.543988
			 0.697848 -0.552730 -0.455519
			 0.758868 -0.508074 -0.407407
			 0.812887 -0.453432 -0.365534
			-0.576457  0.049620  0.815620
			-0.561954  0.168642  0.809795
			-0.640874  0.192995  0.742989
			-0.741350  0.216878  0.635110
			-0.876279 -0.301128  0.376107
			-0.770614  0.307947  0.557963
			-0.923192  0.287453  0.255124
			-0.940184  0.331760  0.077394
			-0.946536  0.316666 -0.061573
			-0.948889 -0.184604 -0.255991
			-0.931887  0.281322 -0.229007
			 0.703950  0.710022  0.017973
			-0.850534  0.284191  0.442523
			 0.826797 -0.469024 -0.310520
			 0.867083 -0.455317 -0.202123
			 0.896229  0.087446 -0.434888
			-0.569606  0.116359  0.813640
			-0.989674 -0.142155 -0.018381
			-0.879152  0.193508  0.435484
			-0.861500  0.189758  0.470966
			-0.934264  0.089675  0.345121
			-0.768253  0.207764  0.605493
			-0.517956  0.633910 -0.574351
			-0.604129  0.676409 -0.421306
			-0.499877  0.836240  0.225447
			-0.447100  0.812063  0.375041
			-0.469759  0.778482  0.416285
			-0.229081  0.777834  0.585231
			-0.171807  0.787725  0.591584
			-0.133839  0.904028  0.405981
			-0.136507  0.935743  0.325193
			 0.579948  0.760062 -0.293199
			 0.551301  0.816813 -0.169951
			 0.056410  0.996294 -0.064931
			 0.685517  0.724243  0.074426
			-0.198578  0.967561  0.156184
			 0.480399  0.870292 -0.108668
			-0.301194  0.946017  0.119724
			 0.527227  0.837971 -0.140837
			-0.175611  0.957921  0.227043
			 0.558563  0.817783 -0.138702
			 0.436704  0.897477 -0.061844
			-0.911658  0.379115 -0.158594
			-0.280353  0.934504 -0.219329
			-0.246827  0.949107 -0.195634
			-0.103404  0.857516  0.503958
			 0.067162  0.995756 -0.062920
			-0.619959  0.769132 -0.155199
			 0.128285  0.981638 -0.141172
			 0.534909  0.838129  0.106827
			 0.180141  0.982716  0.042640
			 0.601497  0.795001  0.078576
			 0.247904  0.967639  0.047097
			 0.605849  0.794037 -0.049527
			 0.329828  0.943213  0.039543
			 0.337343  0.939021  0.066625
			-0.334720  0.788001  0.516737
			 0.326672  0.944167  0.042818
			 0.391262  0.919955  0.024420
			-0.094154  0.812267  0.575636
			 0.432542  0.900094  0.052334
			 0.429843  0.902864  0.008450
			 0.694321  0.706164 -0.138745
			 0.725718  0.621440 -0.295204
			 0.652027  0.661939 -0.369727
			 0.655163  0.672609 -0.344032
			 0.656802  0.687779 -0.309147
			 0.666452  0.591798 -0.453451
			 0.739096  0.086269 -0.668053
			 0.811564 -0.272655 -0.516743
			 0.919918 -0.108392 -0.376831
			 0.963974  0.187199 -0.188971
			 0.938410  0.333510  0.090319
			 0.618337  0.628801 -0.471454
			 0.691761  0.580241 -0.429869
			 0.707661  0.534866 -0.461666
			 0.740539  0.078971 -0.667358
			 0.736823  0.294043 -0.608794
			 0.736432  0.229140 -0.636524
			 0.640648  0.703217 -0.308314
			 0.636853  0.707482 -0.306412
			 0.820411  0.292108 -0.491528
			 0.783357  0.548895 -0.291661
			 0.816296  0.469439 -0.336582
			 0.860870  0.181242 -0.475451
			 0.770748  0.552867 -0.316677
			 0.795967  0.590822 -0.131775
			 0.732525  0.673050 -0.102035
			 0.930968  0.060024 -0.360133
			 0.950047  0.121018 -0.287690
			 0.954645  0.199027 -0.221453
			 0.771724  0.611511 -0.174633
			 0.947536  0.217628 -0.234124
			 0.829268  0.509213 -0.230254
			 0.991898  0.119001  0.044475
			 0.097076  0.500675  0.860175
			-0.034712  0.905578  0.422757
			-0.394946  0.700537  0.594362
			-0.711232  0.249477  0.657199
			 0.196529  0.311835  0.929589
			 0.207398  0.246537  0.946681
			 0.310557 -0.288060  0.905857
			 0.156260 -0.228069  0.961024
			-0.287918 -0.620177  0.729715
			 0.144100 -0.816900  0.558489
			 0.181010 -0.836733  0.516831
			 0.445545 -0.847026  0.289891
			 0.803506 -0.507785  0.310696
			 0.699897 -0.037564  0.713255
			 0.591112  0.399816  0.700524
			 0.377308  0.665803  0.643696
			-0.123255 -0.986745 -0.105557
			 0.418690 -0.899301 -0.126317
			 0.929061 -0.368690  0.030226
			 0.985758  0.167581  0.014044
			 0.814881  0.547789 -0.189461
			 0.551530  0.827208 -0.107432
			-0.299002 -0.952538 -0.057185
			-0.795245 -0.579459 -0.178362
			-0.982402  0.001360 -0.186773
		</DataArray>
	</PointData>
	<Points>
		<DataArray type="Float32" NumberOfComponents="3" format="ascii">
			-0.036258  0.020619 -0.136639
			-0.038345  0.024298 -0.145310
			-0.037593  0.025071 -0.136101
			-0.041036  0.028233 -0.136917
			-0.045131  0.025538 -0.145982
			-0.048950  0.029857 -0.142906
			-0.050643  0.026689 -0.145910
			-0.047623  0.021473 -0.143231
			-0.041679  0.020068 -0.140081
			-0.043964  0.018527 -0.128189
			-0.038931  0.019750 -0.128230
			-0.038917  0.022391 -0.129418
			-0.050822  0.019862 -0.139952
			-0.051823  0.019524 -0.127361
			-0.044816  0.018282 -0.121558
			-0.051628  0.019286 -0.120541
			-0.044220  0.017401 -0.113325
			-0.051562  0.017734 -0.111855
			-0.042952  0.016101 -0.107940
			-0.051225  0.015401 -0.102408
			-0.045910  0.013586 -0.098717
			-0.041469  0.014691 -0.101982
			-0.037905  0.013020 -0.092889
			-0.040868  0.011504 -0.088675
			-0.035689  0.012848 -0.095722
			-0.033282  0.012158 -0.098756
			-0.037074  0.016498 -0.106475
			-0.038237  0.017731 -0.110539
			-0.039798  0.018463 -0.114520
			-0.039499  0.018942 -0.121524
			-0.059802  0.019030 -0.134809
			-0.062777  0.021319 -0.125602
			-0.061166  0.025024 -0.116524
			-0.054481  0.023186 -0.143426
			-0.061494  0.021035 -0.134977
			-0.056716  0.023960 -0.111206
			-0.053214  0.017941 -0.101621
			-0.051137  0.012798 -0.095339
			-0.033336  0.010773 -0.085796
			-0.035099  0.010766 -0.082874
			-0.026669  0.008376 -0.080775
			-0.028695  0.009352 -0.078219
			-0.019052  0.004948 -0.076425
			-0.022194  0.007660 -0.072613
			-0.013773  0.001551 -0.069913
			-0.016581  0.004133 -0.066288
			-0.006250 -0.002477 -0.048238
			-0.002879 -0.006465 -0.047905
			-0.000925 -0.009006 -0.038930
			-0.003684 -0.004823 -0.039169
			 0.001059 -0.011372 -0.028533
			-0.002290 -0.005847 -0.029605
			-0.002938 -0.005096 -0.022860
			 0.001525 -0.008573 -0.017018
			-0.002713 -0.008683 -0.013639
			 0.000693 -0.012267 -0.012539
			 0.003768 -0.013220 -0.015946
			-0.030576  0.010174 -0.089677
			-0.024570  0.006944 -0.083818
			-0.029102  0.008356 -0.093204
			-0.023149  0.003363 -0.085953
			-0.016561  0.001425 -0.080455
			-0.010781 -0.001554 -0.072695
			-0.005221 -0.004480 -0.063421
			-0.007753 -0.002631 -0.061138
			-0.000587 -0.007205 -0.055760
			-0.004772 -0.005576 -0.052737
			 0.002572 -0.009529 -0.049053
			 0.004681 -0.011671 -0.041122
			 0.006953 -0.013467 -0.032140
			 0.009928 -0.015121 -0.022764
			-0.031416  0.013396 -0.100437
			-0.026580  0.010208 -0.095055
			-0.019692  0.008988 -0.088491
			-0.013280  0.005146 -0.082271
			-0.006617  0.001599 -0.074709
			-0.000259 -0.001445 -0.065141
			 0.004315 -0.003514 -0.056627
			 0.006694 -0.006649 -0.048323
			 0.009368 -0.007904 -0.041501
			-0.042033  0.017819 -0.086782
			-0.029370  0.014620 -0.077467
			-0.022232  0.011133 -0.071516
			-0.016133  0.008925 -0.064787
			-0.010934  0.000959 -0.057122
			-0.010485  0.005777 -0.056657
			-0.003138  0.002355 -0.038950
			-0.002477  0.000825 -0.031584
			-0.002863  0.000611 -0.025524
			-0.004581 -0.004867 -0.013681
			-0.003767  0.001198 -0.016608
			 0.005096  0.004123 -0.034136
			-0.006149  0.003588 -0.048042
			 0.011905 -0.009343 -0.033268
			 0.013984 -0.010620 -0.025126
			 0.004734 -0.000409 -0.056855
			-0.035778  0.016036 -0.082133
			-0.064603  0.024273 -0.126889
			-0.061615  0.028948 -0.118261
			-0.057726  0.026969 -0.110787
			-0.053493  0.023702 -0.100967
			-0.051228  0.020645 -0.093989
			-0.054742  0.029154 -0.142380
			-0.059820  0.030143 -0.134530
			-0.060919  0.031321 -0.119830
			-0.057310  0.030100 -0.112062
			-0.051427  0.028337 -0.102010
			-0.039301  0.023276 -0.087625
			-0.033134  0.021758 -0.083921
			-0.014093  0.013160 -0.066602
			-0.006214  0.010143 -0.056368
			 0.010572  0.005774 -0.014462
			 0.008328  0.006638 -0.021572
			 0.002331  0.007302 -0.029363
			 0.005012  0.006887 -0.038732
			 0.001782  0.007457 -0.035332
			 0.004087  0.006900 -0.041770
			 0.001263  0.008018 -0.040545
			 0.000360  0.008038 -0.053338
			-0.002463  0.009139 -0.051061
			-0.003168  0.008936 -0.058074
			-0.011827  0.012320 -0.070299
			-0.005285  0.002718 -0.009299
			 0.001051  0.010275 -0.013498
			 0.003161  0.008941 -0.020707
			-0.020060  0.015538 -0.073701
			-0.053114  0.031897 -0.130389
			-0.062083  0.031136 -0.128375
			-0.050936  0.031210 -0.138534
			-0.043969  0.028389 -0.129922
			-0.053501  0.031846 -0.121868
			-0.045008  0.027535 -0.122645
			-0.050270  0.030330 -0.113625
			-0.045640  0.027187 -0.115454
			-0.047406  0.029855 -0.106043
			-0.042183  0.027112 -0.098667
			-0.047793  0.026056 -0.095863
			-0.034449  0.023784 -0.091569
			-0.029978  0.021644 -0.086833
			-0.027202  0.019026 -0.079662
			-0.024723  0.019170 -0.082197
			-0.018561  0.015204 -0.075884
			-0.043399  0.025215 -0.107893
			-0.039169  0.024228 -0.102098
			-0.032567  0.021174 -0.096144
			-0.027188  0.018856 -0.090849
			-0.022156  0.016470 -0.085733
			-0.032237  0.018475 -0.098271
			-0.031706  0.015286 -0.101639
			-0.035376  0.017145 -0.107502
			-0.037837  0.019383 -0.113162
			-0.038808  0.020122 -0.118464
			-0.039871  0.021136 -0.124707
			-0.029649  0.016134 -0.098958
			-0.026437  0.015573 -0.093643
			-0.026171  0.014606 -0.094318
			-0.026076  0.013074 -0.095386
			-0.020114  0.010707 -0.089324
			-0.013384  0.007808 -0.082699
			-0.015525  0.012534 -0.079979
			-0.008891  0.009894 -0.073253
			-0.006974  0.005247 -0.075506
			-0.004987  0.007976 -0.068911
			-0.002626  0.005820 -0.064572
			-0.001294  0.001190 -0.066530
			 0.003065  0.004387 -0.055743
			 0.008512  0.002950 -0.043330
			 0.010635  0.002229 -0.030911
			 0.008759 -0.002065 -0.047293
			 0.010599 -0.001003 -0.040625
			 0.012997 -0.001320 -0.032088
			 0.012326  0.001779 -0.022765
			 0.015101 -0.003666 -0.024541
			 0.014737  0.001482 -0.015272
			 0.016825 -0.004999 -0.016584
			 0.005457  0.005172 -0.003616
			 0.002572  0.011991 -0.007940
			-0.004306  0.005224 -0.003953
			-0.007753 -0.002867  0.000789
			 0.000043 -0.000031  0.000049
			 0.007840 -0.000276 -0.003402
			 0.001017 -0.008254 -0.000799
			 0.008729 -0.005627 -0.004211
			-0.006974 -0.010773  0.000720
			 0.001061 -0.013418 -0.003976
			 0.009219 -0.013858 -0.007977
			 0.015058 -0.012058 -0.006281
			 0.016619 -0.008628 -0.004500
			 0.015288 -0.002572 -0.004183
			 0.015063  0.002891 -0.004726
			 0.010551  0.007263 -0.004823
			 0.004852 -0.014806 -0.011636
			 0.011488 -0.014116 -0.016434
			 0.014589 -0.009827 -0.015847
			 0.015519 -0.001088 -0.013403
			 0.013486  0.005037 -0.010571
			 0.009685  0.009195 -0.009833
			-0.000492 -0.013800 -0.007548
			-0.006317 -0.010763 -0.003857
			-0.007321 -0.003516 -0.005291
		</DataArray>
	</Points>
			<Polys>
				<DataArray type="Int32" Name="connectivity" format="ascii">
					0 1 2 
					3 1 4 5 
					6 4 7 
					7 4 1 8 
					8 1 0 
					9 8 0 10 
					10 0 2 11 
					9 12 7 8 
					9 13 12 
					13 9 14 15 
					15 14 16 17 
					17 16 18 19 
					20 21 22 23 
					22 21 24 
					25 24 21 26 
					26 21 18 27 
					27 18 16 28 
					28 16 14 29 
					29 14 9 10 
					30 13 31 
					31 13 15 32 
					13 30 12 
					6 7 12 33 
					33 12 30 34 
					32 15 17 35 
					35 17 19 36 
					19 37 36 
					37 19 20 
					20 19 18 21 
					23 37 20 
					23 22 38 39 
					39 38 40 41 
					41 40 42 43 
					43 42 44 45 
					46 47 48 49 
					48 50 51 
					51 50 52 
					52 50 53 
					52 53 54 
					54 53 55 
					55 53 56 
					22 24 57 38 
					38 57 58 40 
					40 58 42 
					24 25 59 57 
					57 59 60 58 
					58 60 61 42 
					42 61 62 44 
					44 62 63 64 
					64 63 65 66 
					47 67 68 48 
					68 69 50 
					26 71 25 
					25 71 72 59 
					59 72 73 60 
					60 73 74 61 
					61 74 75 62 
					62 75 76 63 
					63 76 77 65 
					65 77 78 67 
					67 78 79 68 
					37 23 80 
					81 41 43 82 
					82 43 45 83 
					83 45 84 85 
					86 49 51 87 
					87 51 52 88 
					88 52 89 90 
					89 52 54 
					46 66 47 
					66 65 67 
					66 67 47 
					46 49 86 
					46 86 92 
					84 46 92 
					84 92 85 
					66 46 84 64 
					64 84 45 44 
					53 50 56 
					56 50 69 70 
					68 79 93 69 
					69 93 94 70 
					96 39 41 81 
					39 96 80 23 
					34 30 31 97 
					97 31 32 98 
					98 32 35 99 
					99 35 36 100 
					100 36 37 101 
					101 37 80 
					102 33 34 103 
					104 98 99 105 
					105 99 100 106 
					107 80 96 108 
					109 83 85 110 
					112 91 113 
					113 91 114 115 
					115 114 116 117 
					117 116 118 119 
					119 118 120 110 
					110 120 121 109 
					122 123 124 90 
					90 124 113 88 
					88 113 115 87 
					87 115 117 86 
					86 117 119 92 
					92 119 110 85 
					82 83 109 125 
					126 103 127 
					103 34 97 127 
					127 97 98 104 
					103 126 128 102 
					102 128 5 6 
					129 126 130 131 
					131 130 132 133 
					126 127 104 130 
					130 104 105 132 
					132 105 106 134 
					135 136 107 137 
					137 107 108 138 
					138 108 139 140 
					140 139 125 141 
					134 106 136 135 
					106 100 101 136 
					136 101 80 107 
					108 96 81 139 
					126 129 128 
					133 132 134 142 
					142 134 135 143 
					143 135 137 144 
					144 137 138 145 
					145 138 140 146 
					5 128 129 3 
					2 3 129 11 
					1 3 2 
					143 144 147 
					147 148 149 143 
					143 149 150 142 
					142 150 151 133 
					133 151 152 131 
					131 152 11 129 
					148 147 153 
					153 147 154 155 
					155 156 148 153 
					154 157 155 
					10 11 152 29 
					29 152 151 28 
					26 149 148 71 
					147 144 145 154 
					154 145 146 157 
					71 148 156 72 
					157 156 155 
					158 159 160 161 
					159 141 121 160 
					141 125 109 121 
					146 140 141 159 
					159 158 157 146 
					161 160 162 
					162 160 121 120 
					120 163 162 
					162 163 161 
					161 163 164 
					164 163 165 95 
					165 163 120 118 
					165 118 116 166 
					166 116 114 
					166 91 167 
					95 165 166 168 
					72 156 157 73 
					74 73 157 158 
					161 75 74 158 
					164 76 75 161 
					95 77 76 164 
					168 78 77 95 
					168 166 169 
					169 166 167 170 
					170 167 171 172 
					172 171 173 174 
					111 173 171 112 
					112 171 167 91 
					172 94 93 170 
					170 93 79 169 
					169 79 78 168 
					4 6 5 
					6 33 102 
					150 27 28 151 
					125 139 81 82 
					51 49 48 
					166 114 91 
					124 112 113 
					123 111 112 124 
					175 176 177 
					177 178 179 
					177 179 180 175 
					180 179 181 182 
					181 179 178 183 
					183 184 181 
					181 184 185 182 
					182 185 186 187 188 
					182 188 189 180 
					180 189 190 175 
					175 190 176 
					186 185 191 192 
					192 193 187 186 
					187 193 194 188 
					188 194 195 189 
					189 195 196 190 
					191 185 184 197 
					197 184 183 198 
					183 178 199 198 
					176 123 122 177 
					177 122 199 178 
					90 89 199 122 
					54 198 199 89 
					55 197 198 54 
					56 191 197 55 
					70 94 193 192 
					94 172 174 193 
					174 194 193 
					111 195 194 173 
					196 195 111 
					176 190 196 
					123 176 196 111 
					191 56 70 192 
					27 150 149 26 
					50 48 68 
					174 173 194 
				</DataArray>
				<DataArray type="Int32" Name="offsets" format="ascii">
					3 7 10 14 17 21 25 29 32 36 40 44 48 51 55 59 63 67 71 74 78 81 85 89 93 97 100 103 107 110 114 118 122 126 130 133 136 139 142 145 148 152 156 159 163 167 171 175 179 183 187 190 193 197 201 205 209 213 217 221 225 228 232 236 240 244 248 252 255 258 261 264 267 270 273 276 280 284 287 291 295 299 303 307 311 315 319 323 327 330 334 338 342 346 350 353 357 361 365 369 373 377 381 385 389 393 397 401 404 408 412 416 420 424 428 432 436 440 444 448 452 456 460 464 468 472 475 479 483 487 491 495 499 503 506 509 513 517 521 525 529 532 536 540 543 547 551 555 559 563 567 570 574 578 582 586 590 593 597 600 603 606 610 614 618 621 624 628 632 636 640 644 648 652 655 659 663 667 671 675 679 683 687 690 693 697 701 704 707 710 714 717 720 724 728 732 735 739 744 748 752 755 759 763 767 771 775 779 783 787 791 795 799 803 807 811 815 819 822 826 829 832 836 840 844 847 850 
				</DataArray>
			</Polys>
		</Piece>
	</PolyData>
</VTKFile>
