<?xml version="1.0"?>
<VTKFile type="PolyData" version="0.1" byte_order="LittleEndian" compressor="vtkZLibDataCompressor">
	<PolyData>
		<Piece NumberOfPoints="770" NumberOfVerts="0" NumberOfLines="0" NumberOfStrips="0" NumberOfPolys="779">
		<PointData Normals="Normals">
		<DataArray type="Float32" Name="Normals" NumberOfComponents="3" format="ascii">
			 0.909018 -0.197558  0.366957
			 0.935648 -0.077478  0.344326
			 0.915876  0.041707  0.399290
			 0.857975  0.124992  0.498253
			 0.847581  0.125380  0.515642
			 0.880158  0.051950  0.471829
			 0.890100 -0.041028  0.453915
			 0.805221 -0.053982  0.590513
			 0.732789 -0.204530  0.648990
			 0.678694 -0.438263  0.589322
			 0.557631 -0.396449  0.729298
			 0.471556 -0.148222  0.869290
			 0.282415  0.759814  0.585597
			-0.380337  0.662767 -0.645045
			-0.464740  0.237811 -0.852914
			-0.477283  0.317772 -0.819281
			-0.545804  0.350200 -0.761221
			-0.550768  0.473149 -0.687593
			-0.524880  0.629723 -0.572669
			-0.625619  0.683400 -0.376251
			-0.736715  0.651655 -0.180547
			-0.951644  0.013015 -0.306927
			-0.674351 -0.585349 -0.450130
			-0.638087 -0.372492 -0.673866
			-0.664435 -0.110368 -0.739151
			-0.763035  0.017452 -0.646121
			-0.859304 -0.001614 -0.511463
			-0.892307 -0.073672 -0.445377
			-0.895137 -0.058329 -0.441959
			-0.937036  0.109471 -0.331632
			-0.966891  0.053296 -0.249564
			-0.924566 -0.217690 -0.312712
			-0.857259 -0.344889 -0.382307
			-0.473491 -0.733348 -0.487860
			 0.658353 -0.752708 -0.000905
			 0.571346 -0.593527  0.566824
			 0.391984 -0.511321  0.764787
			 0.293185 -0.326010  0.898755
			 0.028673 -0.415899  0.908959
			-0.098111 -0.317591  0.943138
			 0.391206 -0.100000  0.914854
			 0.208256  0.003074  0.978070
			-0.233791 -0.074643  0.969417
			-0.356623  0.033557  0.933646
			 0.390924 -0.264064  0.881731
			 0.698837 -0.269870  0.662418
			-0.247315  0.947041  0.204814
			-0.580219  0.796803 -0.168672
			-0.516417  0.380278 -0.767269
			-0.361326  0.147368 -0.920721
			-0.633788  0.264543 -0.726863
			-0.893822  0.439420 -0.089396
			-0.848367  0.505336 -0.157822
			-0.860075  0.500411  0.099297
			-0.876982  0.461456  0.134015
			-0.960186 -0.182919  0.211147
			-0.988348 -0.138340  0.063487
			-0.988332 -0.035542  0.148107
			-0.887030  0.038573  0.460098
			-0.999871  0.001568  0.015983
			-0.975833 -0.099094  0.194758
			-0.970995 -0.184909 -0.151579
			-0.931048 -0.151420 -0.331997
			-0.967085 -0.229136 -0.110652
			-0.867990 -0.410700  0.279140
			-0.624599 -0.592366  0.508899
			-0.047452 -0.943335  0.328432
			 0.985015  0.030282  0.169790
			 0.969000  0.029231  0.245326
			 0.965721  0.027650  0.258104
			 0.912550  0.103176  0.395737
			 0.870907  0.129304  0.474133
			 0.897026  0.044079  0.439773
			 0.908787 -0.087035  0.408082
			 0.851055 -0.128841  0.509023
			 0.762071 -0.251514  0.596648
			 0.644042 -0.563319  0.517573
			 0.539983 -0.561362  0.627129
			 0.532856 -0.199049  0.822462
			 0.651461  0.699223  0.294424
			-0.120780  0.564951 -0.816237
			-0.343888  0.264364 -0.901029
			-0.411020  0.460645 -0.786682
			-0.445888  0.575980 -0.685150
			-0.340325  0.723117 -0.601066
			-0.418910  0.828233 -0.372215
			-0.703549  0.676297 -0.218269
			-0.960627  0.220044 -0.169634
			-0.583335 -0.766520 -0.268641
			-0.278879 -0.882531 -0.378636
			-0.339410 -0.671414 -0.658790
			-0.573260 -0.220533 -0.789138
			-0.740103  0.081489 -0.667538
			-0.834176  0.071381 -0.546860
			-0.870354 -0.035535 -0.491143
			-0.904341 -0.011336 -0.426659
			-0.961702  0.179117 -0.207475
			-0.973806  0.135409 -0.182663
			-0.897828 -0.141599 -0.416958
			-0.749341 -0.274353 -0.602676
			-0.338239 -0.402385 -0.850694
			 0.717272 -0.316786 -0.620619
			 0.941357 -0.098174 -0.322813
			 0.984410 -0.064684  0.163564
			 0.932368 -0.033862  0.359922
			 0.880186  0.046353  0.472359
			 0.843752  0.092876  0.528636
			 0.890413  0.002369  0.455148
			 0.884973 -0.135217  0.445578
			 0.835292 -0.188564  0.516461
			 0.761851 -0.310290  0.568597
			 0.574917 -0.624063  0.529165
			 0.497619 -0.639850  0.585634
			 0.583641 -0.302207  0.753680
			 0.845808  0.474819  0.243221
			 0.026946  0.539633 -0.841469
			-0.287600  0.352064 -0.890695
			-0.243934  0.699106 -0.672122
			-0.199272  0.892668 -0.404270
			-0.103260  0.966863 -0.233480
			-0.289863  0.956317 -0.037922
			-0.705719  0.708492  0.000331
			-0.992213 -0.079798 -0.095638
			-0.373981 -0.917334 -0.136516
			-0.056818 -0.889438 -0.453511
			-0.556220 -0.411917 -0.721764
			-0.788632  0.084595 -0.609018
			-0.832286  0.156171 -0.531894
			-0.847335  0.039296 -0.529603
			-0.921375  0.062235 -0.383659
			-0.976992  0.184560 -0.106882
			-0.983102  0.178293 -0.041491
			-0.956203 -0.017232 -0.292198
			-0.742894 -0.223366 -0.631044
			-0.213432 -0.290340 -0.932818
			 0.511600 -0.192198 -0.837452
			 0.709354 -0.291925 -0.641559
			 0.941286 -0.257994 -0.217762
			 0.950495 -0.185229  0.249497
			 0.803092 -0.037139  0.594696
			 0.762834  0.025720  0.646083
			 0.848259 -0.077313  0.523909
			 0.838155 -0.183927  0.513485
			 0.802420 -0.229766  0.550754
			 0.740416 -0.366803  0.563241
			 0.541937 -0.642882  0.541301
			 0.460887 -0.710867  0.531273
			 0.540404 -0.449578  0.711226
			 0.843211  0.376964  0.383266
			 0.121209  0.642183 -0.756908
			-0.333141  0.503853 -0.796963
			-0.115769  0.871103 -0.477259
			 0.095303  0.992821 -0.072274
			 0.145097  0.962042  0.231133
			-0.193269  0.913783  0.357278
			-0.674434  0.714297  0.186867
			-0.947293  0.284556 -0.147189
			-0.634258 -0.667093 -0.390773
			 0.251618 -0.944748 -0.210092
			 0.153653 -0.930222 -0.333284
			-0.470614 -0.604318 -0.642901
			-0.775003  0.015119 -0.631777
			-0.794108  0.199032 -0.574263
			-0.798460  0.120465 -0.589873
			-0.894904  0.174746 -0.410622
			-0.952710  0.281814 -0.113690
			-0.954084  0.297909 -0.031201
			-0.963420  0.186513 -0.192445
			-0.789685 -0.080842 -0.608162
			-0.070496 -0.360035 -0.930271
			 0.466409 -0.346491 -0.813884
			 0.738548 -0.492297 -0.460642
			 0.833484 -0.430781 -0.346024
			 0.920389 -0.366903  0.135157
			 0.677201 -0.158294  0.718569
			 0.542434 -0.054009  0.838360
			 0.672627 -0.138229  0.726957
			 0.751064 -0.217347  0.623428
			 0.759193 -0.269198  0.592586
			 0.702498 -0.403270  0.586404
			 0.513011 -0.667656  0.539496
			 0.377714 -0.767907  0.517350
			 0.463646 -0.511212  0.723668
			 0.706278  0.520160  0.480214
			-0.022091  0.773863 -0.632968
			-0.357625  0.643342 -0.676917
			-0.137841  0.946905 -0.290466
			 0.239748  0.958696  0.153046
			 0.399096  0.804668  0.439582
			-0.085785  0.866082  0.492486
			-0.720775  0.680011  0.134421
			-0.914995  0.280760 -0.289754
			-0.599973 -0.475944 -0.643047
			 0.145627 -0.869460 -0.472051
			 0.130805 -0.892082 -0.432526
			-0.442979 -0.629284 -0.638570
			-0.762405 -0.051989 -0.645009
			-0.758858  0.221615 -0.612389
			-0.726716  0.163141 -0.667285
			-0.820839  0.265671 -0.505610
			-0.881448  0.456780 -0.120002
			-0.892712  0.446735 -0.059103
			-0.890422  0.326427 -0.317166
			-0.693060  0.089616 -0.715288
			 0.023782 -0.331362 -0.943204
			 0.582576 -0.509706 -0.633092
			 0.812217 -0.576178 -0.091227
			 0.817756 -0.524829 -0.236284
			 0.851700 -0.473126  0.225296
			 0.502379 -0.214255  0.837681
			 0.329315 -0.066475  0.941877
			 0.486058 -0.144400  0.861914
			 0.636739 -0.245192  0.731057
			 0.669448 -0.290273  0.683798
			 0.640505 -0.431929  0.634972
			 0.480169 -0.693885  0.536620
			 0.351659 -0.792590  0.498133
			 0.510229 -0.567686  0.646064
			 0.636823  0.677802  0.367478
			-0.220426  0.805510 -0.550060
			-0.343002  0.747026 -0.569474
			-0.132158  0.973705 -0.185561
			 0.242016  0.920465  0.306874
			 0.459975  0.680988  0.569805
			 0.052913  0.833158  0.550498
			-0.499950  0.836988  0.222487
			-0.773237  0.607598 -0.181463
			-0.605102 -0.140005 -0.783741
			 0.005250 -0.658214 -0.752813
			-0.092802 -0.753371 -0.651015
			-0.557092 -0.523268 -0.644856
			-0.763279 -0.085833 -0.640341
			-0.713143  0.198860 -0.672222
			-0.623125  0.200567 -0.755969
			-0.717955  0.334326 -0.610546
			-0.810652  0.568619 -0.139697
			-0.813609  0.580132 -0.038567
			-0.787304  0.402499 -0.467062
			-0.469800  0.107122 -0.876250
			 0.044332 -0.206071 -0.977532
			 0.654756 -0.552662 -0.515616
			 0.774724 -0.631517  0.031450
			 0.759987 -0.612010 -0.218777
			 0.785309 -0.567568  0.247299
			 0.445606 -0.203572  0.871776
			 0.298075 -0.048377  0.953316
			 0.434115 -0.146924  0.888795
			 0.549516 -0.255371  0.795499
			 0.595566 -0.299522  0.745378
			 0.568405 -0.472756  0.673363
			 0.429991 -0.729087  0.532485
			 0.347025 -0.806777  0.478210
			 0.564140 -0.611619  0.554678
			 0.936477  0.200992  0.287423
			 0.057408  0.867443 -0.494214
			-0.346238  0.806222 -0.479714
			-0.183812  0.965582 -0.184022
			 0.253904  0.923625  0.287142
			 0.487050  0.626302  0.608711
			 0.187439  0.769745  0.610212
			-0.758007  0.633023 -0.157183
			-0.679686 -0.070306 -0.730126
			-0.251136 -0.562437 -0.787779
			-0.342854 -0.617918 -0.707551
			-0.632456 -0.400675 -0.662917
			-0.750921 -0.071975 -0.656458
			-0.663320  0.159301 -0.731184
			-0.542574  0.248120 -0.802527
			-0.671613  0.364121 -0.645253
			-0.813908  0.543591 -0.205091
			-0.783359  0.620872 -0.029436
			-0.709793  0.525012 -0.469635
			-0.315304  0.114659 -0.942039
			 0.081546 -0.189985 -0.978395
			 0.630265 -0.596411 -0.497051
			 0.758253 -0.649236  0.059540
			 0.735078 -0.653388 -0.180956
			 0.759337 -0.584718  0.285503
			 0.426690 -0.205996  0.880625
			 0.249183 -0.052045  0.967057
			 0.377727 -0.148144  0.913989
			 0.483537 -0.248594  0.839281
			 0.544801 -0.329530  0.771105
			 0.508958 -0.507847  0.695020
			 0.397567 -0.738327  0.544806
			 0.351453 -0.815269  0.460236
			 0.545280 -0.675638  0.496168
			 0.942065 -0.098526  0.320634
			 0.524130  0.802517 -0.285051
			-0.272149  0.845000 -0.460337
			-0.193672  0.959840 -0.202974
			 0.210179  0.926204  0.313004
			 0.440778  0.613532  0.655205
			 0.358022  0.592990  0.721237
			-0.312356  0.901215  0.300409
			-0.831556  0.333730 -0.444004
			-0.624262 -0.358072 -0.694321
			-0.455660 -0.530442 -0.714847
			-0.542923 -0.538575 -0.644338
			-0.704975 -0.376639 -0.600960
			-0.760955 -0.125698 -0.636512
			-0.644414  0.111843 -0.756454
			-0.543974  0.256468 -0.798948
			-0.667655  0.383952 -0.637823
			-0.805083  0.544007 -0.236427
			-0.793871  0.606484 -0.044119
			-0.710400  0.551036 -0.437826
			-0.321810  0.142575 -0.936008
			 0.021808 -0.175597 -0.984221
			 0.595401 -0.621447 -0.509216
			 0.778677 -0.624626  0.059200
			 0.757812 -0.630529 -0.167792
			 0.755548 -0.563913  0.333391
			 0.379713 -0.201988  0.902784
			 0.216752 -0.050837  0.974902
			 0.315531 -0.152806  0.936531
			 0.380603 -0.262030  0.886838
			 0.419777 -0.372312  0.827751
			 0.390073 -0.524880  0.756534
			 0.333929 -0.730909  0.595201
			 0.346434 -0.822812  0.450515
			 0.445939 -0.730108  0.517765
			 0.811132 -0.005274  0.584839
			 0.294135  0.953441 -0.066592
			-0.248823  0.893123 -0.374725
			-0.221990  0.965355 -0.137147
			 0.118311  0.912773  0.390959
			 0.373953  0.616536  0.692851
			 0.457218  0.413496  0.787383
			-0.001097  0.812326  0.583202
			-0.827003  0.056194 -0.559381
			-0.650548 -0.458770 -0.605242
			-0.667053 -0.457915 -0.587669
			-0.695844 -0.474014 -0.539548
			-0.710244 -0.395609 -0.582277
			-0.666493 -0.167924 -0.726353
			-0.584352  0.098035 -0.805557
			-0.587168  0.229463 -0.776261
			-0.694052  0.389332 -0.605568
			-0.785168  0.578077 -0.222123
			-0.764747  0.639933 -0.075154
			-0.689009  0.543855 -0.479049
			-0.356789  0.068647 -0.931659
			-0.053233 -0.198822 -0.978589
			 0.598088 -0.586158 -0.546544
			 0.598807 -0.686581  0.412356
			 0.620929 -0.757455  0.201764
			 0.645210 -0.743284  0.176726
			 0.599216 -0.636844  0.485150
			 0.394961 -0.487607  0.778617
			 0.209543 -0.450870  0.867645
			 0.124622 -0.441541  0.888544
			 0.096010 -0.494177  0.864044
			 0.084445 -0.619625  0.780343
			 0.087661 -0.725557  0.682556
			 0.085475 -0.807389  0.583795
			 0.093961 -0.809026  0.580213
			-0.732756  0.666327 -0.138121
			-0.694830  0.717224 -0.052935
			-0.680786  0.730880 -0.048418
			-0.608433  0.791655 -0.055603
			-0.306491  0.942839  0.130833
			 0.139172  0.940989  0.308498
			 0.536796  0.788201  0.300981
			 0.882145  0.451300  0.134716
			 0.638372 -0.214523 -0.739230
			 0.157759 -0.372362 -0.914581
			-0.052758 -0.526787 -0.848358
			-0.133755 -0.450824 -0.882534
			-0.279134 -0.180292 -0.943175
			-0.497334  0.023584 -0.867238
			-0.716156  0.091688 -0.691891
			-0.805064  0.177206 -0.566101
			-0.822955  0.210840 -0.527534
			-0.842983  0.294155 -0.450392
			-0.800563  0.474653 -0.365791
			-0.680719  0.438607 -0.586725
			-0.442213  0.043043 -0.895877
			-0.118386 -0.372423 -0.920481
			 0.451358 -0.853510 -0.260380
			 0.785610 -0.612554  0.087142
			 0.743140 -0.655286 -0.135433
			 0.764167 -0.565345  0.310537
			 0.427682 -0.194763  0.882698
			 0.230695 -0.054992  0.971471
			 0.290077 -0.199116  0.936060
			 0.287755 -0.310608  0.905936
			 0.291729 -0.431191  0.853797
			 0.254221 -0.591102  0.765487
			 0.197461 -0.739771  0.643233
			 0.207766 -0.821862  0.530449
			 0.077089 -0.607622  0.790476
			-0.228260  0.692231  0.684626
			-0.263768  0.962228 -0.067410
			-0.369384  0.886372 -0.279104
			-0.294305  0.954059 -0.056178
			 0.043334  0.898079  0.437694
			 0.296618  0.617391  0.728592
			 0.398302  0.423350  0.813714
			 0.430694  0.432144  0.792309
			-0.628775 -0.378324 -0.679347
			-0.667951 -0.427039 -0.609490
			-0.694780 -0.457971 -0.554566
			-0.663246 -0.509213 -0.548459
			-0.618421 -0.447105 -0.646260
			-0.590345 -0.256994 -0.765145
			-0.576390  0.054493 -0.815356
			-0.614839  0.268310 -0.741608
			-0.736492  0.365504 -0.569198
			-0.826734  0.509307 -0.238992
			-0.779624  0.608674 -0.147320
			-0.642176  0.531567 -0.552310
			-0.330249  0.084267 -0.940125
			-0.074715 -0.231424 -0.969980
			 0.602311 -0.611022 -0.513687
			 0.689054 -0.679779  0.251208
			 0.680873 -0.731258  0.040912
			 0.744782 -0.610606  0.269184
			 0.584723 -0.335435  0.738636
			 0.316437 -0.199961  0.927299
			 0.259910 -0.301594  0.917327
			 0.217677 -0.387998  0.895586
			 0.197833 -0.510306  0.836929
			 0.165299 -0.672017  0.721852
			 0.109302 -0.768343  0.630636
			 0.058487 -0.824481  0.562860
			-0.422090 -0.420617  0.803070
			-0.791017  0.572116  0.216737
			-0.617083  0.777361 -0.122143
			-0.542769  0.815905 -0.199252
			-0.382378  0.924006 -0.000257
			-0.014811  0.904919  0.425327
			 0.279375  0.696335  0.661110
			 0.497207  0.537266  0.681271
			 0.606399  0.393484  0.690978
			-0.243491 -0.543986 -0.802989
			-0.266979 -0.467827 -0.842532
			-0.317434 -0.533449 -0.784007
			-0.319573 -0.523461 -0.789849
			-0.405106 -0.400862 -0.821705
			-0.538263 -0.221416 -0.813171
			-0.655778  0.045732 -0.753568
			-0.725762  0.231442 -0.647846
			-0.780883  0.273688 -0.561530
			-0.837569  0.404527 -0.367201
			-0.773414  0.555255 -0.305815
			-0.624099  0.484222 -0.613213
			-0.349508  0.054923 -0.935322
			-0.079148 -0.316669 -0.945228
			 0.523018 -0.760283 -0.385256
			 0.504187 -0.844228  0.181864
			 0.466771 -0.876107  0.120674
			 0.434237 -0.817556  0.378206
			 0.356731 -0.666596  0.654517
			 0.232601 -0.535326  0.811987
			 0.163589 -0.418668  0.893284
			 0.183504 -0.413695  0.891730
			 0.227697 -0.492073  0.840249
			 0.292710 -0.646903  0.704158
			 0.333183 -0.770451  0.543501
			 0.389034 -0.763036  0.516167
			 0.365490 -0.861436  0.352626
			-0.581983  0.796217 -0.165330
			-0.564107  0.825127  0.030781
			-0.735504  0.675394 -0.053632
			-0.736112  0.670504 -0.092546
			-0.383771  0.923408  0.006095
			 0.034177  0.999064  0.026510
			 0.394802  0.918679 -0.012681
			 0.494767  0.577106 -0.649734
			 0.036826 -0.188245 -0.981431
			-0.174882 -0.414548 -0.893066
			-0.317179 -0.353950 -0.879839
			-0.460625 -0.162870 -0.872524
			-0.591010  0.053531 -0.804886
			-0.714677  0.203875 -0.669083
			-0.774896  0.283521 -0.564935
			-0.810207  0.279447 -0.515242
			-0.851805  0.322919 -0.412494
			-0.881091  0.357450 -0.309691
			-0.806149  0.255362 -0.533773
			-0.468811 -0.027102 -0.882883
			-0.002033 -0.380177 -0.924912
			 0.471350 -0.827162 -0.305994
			 0.410660 -0.896852 -0.164360
			 0.309019 -0.950021  0.044360
			 0.276508 -0.857149  0.434556
			 0.275110 -0.686801  0.672769
			 0.241430 -0.508520  0.826510
			 0.225061 -0.341788  0.912430
			 0.277127 -0.317192  0.906967
			 0.342005 -0.273906  0.898893
			 0.478148 -0.456018  0.750614
			 0.570918 -0.637807  0.516967
			 0.683761 -0.502243  0.529361
			 0.741509 -0.591675  0.316363
			-0.066659  0.973736 -0.217705
			-0.271055  0.960439 -0.063925
			-0.631903  0.770845 -0.080602
			-0.822665  0.559219 -0.102451
			-0.747658  0.663499 -0.027858
			-0.572200  0.816563 -0.076243
			-0.274252  0.956628 -0.098225
			-0.212842  0.779323 -0.589367
			-0.316627  0.143429 -0.937644
			-0.427919 -0.109610 -0.897146
			-0.590901 -0.158125 -0.791096
			-0.680017 -0.169996 -0.713217
			-0.727337 -0.094771 -0.679705
			-0.814434  0.204319 -0.543094
			-0.854172  0.313548 -0.414824
			-0.875783  0.294376 -0.382552
			-0.899447  0.314617 -0.303333
			-0.910537  0.286532 -0.298030
			-0.838192  0.132637 -0.529000
			-0.442638 -0.249567 -0.861271
			 0.132577 -0.511894 -0.848757
			 0.438219 -0.740658 -0.509303
			 0.214799 -0.921875 -0.322503
			 0.232766 -0.972424 -0.014541
			 0.301702 -0.864018  0.403050
			 0.320990 -0.696187  0.642097
			 0.301602 -0.503203  0.809829
			 0.262189 -0.322081  0.909682
			 0.225930 -0.161154  0.960721
			 0.289047 -0.053143  0.955839
			 0.429079 -0.243814  0.869739
			 0.620650 -0.432152  0.654246
			 0.766974 -0.229093  0.599389
			 0.923763  0.043936  0.380437
			 0.442355  0.880261 -0.171648
			-0.131687  0.967536 -0.215715
			-0.399435  0.883582 -0.244408
			-0.638860  0.733971 -0.230530
			-0.761207  0.627996 -0.161819
			-0.734386  0.636723 -0.235079
			-0.528805  0.827217 -0.189941
			-0.470291  0.811323 -0.347250
			-0.600317  0.505726 -0.619565
			-0.723045  0.131079 -0.678250
			-0.817769 -0.026470 -0.574938
			-0.875724  0.113446 -0.469294
			-0.903728  0.057386 -0.424243
			-0.940819  0.153376 -0.302217
			-0.948230  0.225684 -0.223444
			-0.953275  0.213456 -0.213784
			-0.946752  0.158060 -0.280497
			-0.896683  0.190873 -0.399409
			-0.741397  0.113833 -0.661342
			-0.316122 -0.382475 -0.868205
			 0.028598 -0.652818 -0.756975
			 0.183777 -0.824233 -0.535598
			 0.199351 -0.890161 -0.409723
			 0.386133 -0.916375 -0.105634
			 0.529974 -0.812144  0.244030
			 0.612591 -0.668341  0.421962
			 0.547064 -0.457169  0.701226
			 0.510126 -0.241533  0.825490
			 0.570846  0.023974  0.820707
			 0.565787  0.130515  0.814157
			 0.683413 -0.136185  0.717218
			 0.796739 -0.295135  0.527354
			 0.874017 -0.112905  0.472596
			 0.869519  0.259270  0.420376
			 0.658343  0.750921 -0.051973
			 0.239749  0.904412 -0.352929
			-0.088551  0.947506 -0.307232
			-0.264512  0.911896 -0.313814
			-0.528938  0.811804 -0.247384
			-0.750489  0.631777 -0.193971
			-0.655912  0.709692 -0.257131
			-0.696373  0.609966 -0.378162
			-0.744157  0.410720 -0.526820
			-0.761003  0.368500 -0.533930
			-0.776959  0.453259 -0.436911
			-0.777867  0.430222 -0.458073
			-0.790587  0.416212 -0.449154
			-0.813132  0.336960 -0.474630
			-0.839486  0.137496 -0.525698
			-0.605825  0.014028 -0.795474
			-0.139514 -0.356605 -0.923780
			 0.028530 -0.590132 -0.806803
			 0.105375 -0.776246 -0.621561
			 0.559687 -0.423571 -0.712277
			 0.855883  0.020405 -0.516768
			 0.919869 -0.140580 -0.366167
			 0.952337 -0.290844 -0.092003
			 0.992398  0.042586 -0.115464
			 0.969397  0.191686 -0.153379
			 0.968163  0.216677 -0.125344
			 0.940652  0.329208 -0.082439
			 0.929981  0.066784 -0.361491
			 0.954902 -0.074986 -0.287297
			 0.950250 -0.082073 -0.300481
			 0.872949  0.246529 -0.420931
			 0.424992  0.728871 -0.536776
			 0.211226  0.803146 -0.557081
			 0.276411  0.610392 -0.742306
			 0.090356  0.602772 -0.792781
			-0.451600  0.779225 -0.434587
			-0.139684  0.619681 -0.772324
			-0.088135  0.558987 -0.824479
			-0.152337  0.631626 -0.760159
			 0.073999  0.604691 -0.793015
			-0.245255  0.603725 -0.758529
			 0.053017  0.489343 -0.870478
			 0.077064  0.591907 -0.802314
			 0.087031  0.538517 -0.838108
			-0.028902  0.363900 -0.930990
			 0.072359  0.333973 -0.939801
			 0.376056  0.254061 -0.891087
			 0.515655  0.055781 -0.854979
			 0.461787 -0.313160 -0.829870
			 0.107341 -0.982347 -0.153209
			-0.376871  0.878829  0.292623
			 0.563018 -0.737177  0.373604
			-0.982521  0.082664  0.166790
			-0.801893 -0.581396  0.137647
			-0.833482  0.015059 -0.552341
			 0.392272 -0.338127  0.855449
			 0.969106 -0.161476  0.186436
			 0.556409  0.194723  0.807770
			 0.369681  0.364745  0.854574
			-0.271931  0.842633  0.464782
			-0.818756  0.233480 -0.524524
			-0.623854 -0.372444 -0.687089
			-0.268824 -0.654660 -0.706508
			 0.503813 -0.638777 -0.581495
			 0.762019 -0.545284  0.349274
			 0.469721 -0.115722  0.875197
			 0.296740  0.141855  0.944364
			-0.165411  0.823978  0.541941
			-0.792764  0.349912 -0.499086
			-0.684970 -0.343041 -0.642759
			-0.224449 -0.661667 -0.715416
			 0.479577 -0.782306 -0.397498
			 0.573811 -0.735608  0.360031
			 0.376350 -0.434674  0.818180
			 0.187860  0.114802  0.975464
			-0.198466  0.863904  0.462905
			-0.754438  0.505927 -0.418164
			-0.644746 -0.276032 -0.712818
			 0.070740 -0.766539 -0.638290
			 0.562438 -0.820521 -0.102024
			 0.393318 -0.846299  0.359275
			 0.181990 -0.642791  0.744109
			-0.096599  0.108218  0.989423
			-0.411873  0.838091  0.357720
			-0.635685  0.581738 -0.507430
			-0.272551 -0.309123 -0.911130
			 0.435117 -0.805372 -0.402554
			 0.557290 -0.826318  0.081398
			 0.249578 -0.932263  0.261911
			 0.084355 -0.737594  0.669955
			-0.213688 -0.037051  0.976199
			-0.485870  0.780225  0.393929
			-0.475580  0.564610 -0.674565
			 0.172590 -0.410550 -0.895355
			 0.510989 -0.809076 -0.290321
			 0.409237 -0.912257 -0.017668
			 0.442851 -0.889228 -0.114706
			 0.286232 -0.699745  0.654544
			-0.122339  0.265254  0.956386
			-0.337433  0.867541  0.365392
			-0.385315  0.582466 -0.715727
			 0.303107 -0.432815 -0.848998
			 0.474512 -0.789914 -0.388425
			 0.383895 -0.896130 -0.222655
			 0.511420 -0.830065 -0.222353
			 0.816743 -0.343387  0.463698
			 0.296972  0.760995  0.576796
			-0.086559  0.989431  0.116333
			-0.025955  0.299729 -0.953671
			 0.409343 -0.691442 -0.595270
			 0.397404 -0.861549 -0.315916
			 0.374775 -0.925330 -0.057521
			 0.828772 -0.559467  0.011535
			 0.606235  0.758161 -0.240146
			 0.210186  0.915084 -0.344156
			 0.105829  0.476837 -0.872598
			 0.311513 -0.462954 -0.829839
			 0.357351 -0.831291 -0.425741
			 0.632636 -0.653061 -0.416272
			 0.596371  0.353479 -0.720690
			 0.122721  0.309966 -0.942794
			 0.340315 -0.331867 -0.879801
			-0.490248 -0.199423  0.848462
			 0.013742 -0.608380  0.793527
			 0.225688 -0.945647  0.234128
			 0.540710 -0.807393 -0.236112
			 0.754196 -0.381791 -0.534251
			 0.542217  0.428609 -0.722700
			-0.099321  0.815688 -0.569902
			-0.515499  0.649009 -0.559507
			-0.715392  0.527711 -0.457969
			-0.950750  0.276801  0.139483
			-0.238493  0.021384  0.970909
			 0.006559 -0.469942  0.882673
			-0.004289 -0.943040  0.332651
			 0.194232 -0.845720 -0.497023
			 0.256238 -0.616016 -0.744893
			 0.083994  0.014724 -0.996357
			-0.133180  0.559412 -0.818121
			-0.391329  0.641472 -0.659830
			-0.576427  0.756495 -0.308946
			-0.662334  0.570482  0.485659
			 0.064528  0.176391  0.982203
			 0.081901 -0.462182  0.882995
			-0.079538 -0.932702  0.351769
			-0.085486 -0.855752 -0.510275
			-0.057072 -0.680788 -0.730254
			-0.033100 -0.173489 -0.984279
			 0.098820  0.696802 -0.710424
			-0.070390  0.931010 -0.358142
			-0.178582  0.972428  0.149976
			-0.065952  0.701550  0.709562
			 0.346375  0.324868  0.880049
			 0.227159 -0.396642  0.889423
			-0.075969 -0.948824  0.306533
			-0.342662 -0.791866 -0.505500
			-0.388720 -0.526850 -0.755861
			-0.156444  0.013662 -0.987592
			 0.214155  0.870545 -0.443045
			 0.272891  0.956902  0.099344
			 0.276287  0.879085  0.388427
			 0.291892  0.708152  0.642900
			 0.357713  0.410553  0.838742
			 0.199121 -0.385525  0.900956
			-0.154519 -0.958067  0.241313
			-0.505556 -0.767293 -0.394557
			-0.596006 -0.417820 -0.685714
			-0.364610  0.180712 -0.913456
			 0.066772  0.882188 -0.466140
			 0.290732  0.941715  0.169255
			 0.378662  0.775698  0.504885
			 0.381545  0.683516  0.622278
			 0.346361  0.304564  0.887285
			 0.134171 -0.607136  0.783189
			-0.183603 -0.972705  0.141898
			-0.501763 -0.840568 -0.204157
			-0.527979 -0.554057 -0.643630
			-0.193562  0.164351 -0.967224
			 0.155359  0.846800 -0.508717
			 0.274310  0.957896 -0.084791
			 0.340643  0.890805  0.300715
			 0.385677  0.681610  0.621821
			 0.674729  0.220825  0.704256
			 0.374812 -0.765792  0.522570
			-0.097164 -0.993946  0.051291
			-0.337095 -0.911283 -0.236495
			-0.299921 -0.627526 -0.718512
			 0.167571  0.105492 -0.980200
			 0.429473  0.664147 -0.611932
			 0.537487  0.799318 -0.268697
			 0.637519  0.746879  0.189053
			 0.591516  0.660038  0.463096
			 0.942050  0.025268  0.334520
			 0.610098 -0.733605  0.299340
			 0.196457 -0.980387 -0.015672
			 0.084506 -0.923024 -0.375346
			 0.080316 -0.513868 -0.854101
			 0.272045 -0.156819 -0.949421
			 0.703027  0.362709 -0.611715
			 0.954780  0.294050  0.043936
			 0.920316  0.384869  0.069958
			 0.887983  0.424421  0.177066
			 0.595339 -0.590491 -0.544878
			 0.979720 -0.157891 -0.123364
			 0.995597 -0.088146  0.031901
			 0.708890 -0.704919  0.023773
		</DataArray>
	</PointData>
	<Points>
		<DataArray type="Float32" NumberOfComponents="3" format="ascii">
			-0.075089 -0.181652  0.042515
			-0.075248 -0.177481  0.046901
			-0.077694 -0.172587  0.051403
			-0.081000 -0.165621  0.054115
			-0.084734 -0.156991  0.057645
			-0.091775 -0.136375  0.064756
			-0.095598 -0.108365  0.071935
			-0.096155 -0.076981  0.074310
			-0.096370 -0.062326  0.074720
			-0.091874 -0.049607  0.076480
			-0.086658 -0.038552  0.078060
			-0.080687 -0.026274  0.077504
			-0.074302 -0.016627  0.075127
			-0.076853 -0.017339  0.073079
			-0.083973 -0.027777  0.075401
			-0.090143 -0.035967  0.076400
			-0.093612 -0.041632  0.076958
			-0.095263 -0.046103  0.076691
			-0.097685 -0.050546  0.075753
			-0.101222 -0.055239  0.073782
			-0.102498 -0.057143  0.073335
			-0.103950 -0.059582  0.072598
			-0.102745 -0.062407  0.073346
			-0.101692 -0.066880  0.074686
			-0.102508 -0.075300  0.076873
			-0.102634 -0.087216  0.077249
			-0.100508 -0.108132  0.073471
			-0.096901 -0.130457  0.066376
			-0.091218 -0.151161  0.061902
			-0.090153 -0.158597  0.059809
			-0.089093 -0.164393  0.055029
			-0.086392 -0.173572  0.049291
			-0.082432 -0.179733  0.043092
			-0.078389 -0.185525  0.040564
			-0.076497 -0.185244  0.039972
			-0.081122 -0.183564  0.054895
			-0.082823 -0.178458  0.058553
			-0.086099 -0.172230  0.062279
			-0.089653 -0.165033  0.066369
			-0.097375 -0.143475  0.074671
			-0.102092 -0.114325  0.081730
			-0.104772 -0.082406  0.082001
			-0.104965 -0.067359  0.082514
			-0.101514 -0.051672  0.083706
			-0.096660 -0.039168  0.082634
			-0.088808 -0.025010  0.081117
			-0.085152 -0.020878  0.080734
			-0.085571 -0.020105  0.078242
			-0.088206 -0.022580  0.079944
			-0.093827 -0.030126  0.080826
			-0.097493 -0.036236  0.081464
			-0.099303 -0.041489  0.082416
			-0.101121 -0.046584  0.081463
			-0.103096 -0.053965  0.082510
			-0.104544 -0.058477  0.081650
			-0.105748 -0.063754  0.081194
			-0.106498 -0.073893  0.080689
			-0.106378 -0.080074  0.081555
			-0.105373 -0.085800  0.082155
			-0.104356 -0.095506  0.080606
			-0.103331 -0.112852  0.079850
			-0.099948 -0.135188  0.075650
			-0.094355 -0.155296  0.068548
			-0.092401 -0.161814  0.066692
			-0.089326 -0.170558  0.062948
			-0.085916 -0.178951  0.057256
			-0.081428 -0.185405  0.052622
			-0.072777 -0.166992  0.031209
			-0.074225 -0.161637  0.033995
			-0.074679 -0.156829  0.036346
			-0.076279 -0.150272  0.040078
			-0.079720 -0.142592  0.043232
			-0.085043 -0.125889  0.049728
			-0.088569 -0.099956  0.057407
			-0.087646 -0.071991  0.065270
			-0.087991 -0.058208  0.066504
			-0.083147 -0.048223  0.067486
			-0.077597 -0.039490  0.071091
			-0.071935 -0.029257  0.072476
			-0.067217 -0.020413  0.069569
			-0.068327 -0.021149  0.068024
			-0.079815 -0.033074  0.071926
			-0.087586 -0.041492  0.071852
			-0.089621 -0.044475  0.071623
			-0.091823 -0.047605  0.071223
			-0.095851 -0.051779  0.069713
			-0.099845 -0.055576  0.068328
			-0.101013 -0.056988  0.066942
			-0.101946 -0.057731  0.067486
			-0.099866 -0.059525  0.068868
			-0.098610 -0.062602  0.071136
			-0.096911 -0.067444  0.072175
			-0.095368 -0.076901  0.070391
			-0.093342 -0.100351  0.058906
			-0.089280 -0.122135  0.052744
			-0.083827 -0.141048  0.046583
			-0.082774 -0.146904  0.044100
			-0.083815 -0.151341  0.040129