<?xml version="1.0"?>
<VTKFile type="PolyData" version="0.1" byte_order="LittleEndian" compressor="vtkZLibDataCompressor">
	<PolyData>
		<Piece NumberOfPoints="200" NumberOfVerts="0" NumberOfLines="0" NumberOfStrips="0" NumberOfPolys="227">
		<PointData Normals="Normals">
		<DataArray type="Float32" Name="Normals" NumberOfComponents="3" format="ascii">
			 0.875708 -0.468609  0.116371
			 0.723185  0.039472  0.689526
			 0.863024  0.496672 -0.092227
			 0.527715  0.840133  0.125278
			 0.043589  0.021889  0.998810
			 0.019170  0.853494  0.520750
			-0.356808  0.045751  0.933057
			-0.092027 -0.759521  0.643940
			 0.114741 -0.904047  0.411744
			 0.021447 -0.992505  0.120305
			 0.853725 -0.473302 -0.217114
			 0.793800  0.527868 -0.302054
			-0.140123 -0.901984  0.408400
			-0.174317 -0.984579 -0.014790
			 0.035473 -0.996893  0.070324
			-0.398947 -0.914012  0.073650
			 0.037692 -0.983498  0.176950
			-0.465916 -0.872153  0.149237
			 0.052788 -0.968275  0.244246
			-0.396412 -0.886140  0.240027
			 0.006049 -0.967549  0.252613
			 0.024812 -0.972283  0.232488
			-0.164836 -0.974606  0.151568
			-0.320466 -0.918962 -0.229803
			-0.322843 -0.938027  0.126006
			-0.118871 -0.914666  0.386337
			 0.265085 -0.849273  0.456580
			 0.193057 -0.930937  0.309977
			 0.284372 -0.931227  0.227921
			 0.592217 -0.805677  0.012829
			-0.389098 -0.892942  0.226400
			-0.709930 -0.700623 -0.071597
			-0.840998 -0.511908 -0.175134
			-0.563999 -0.265475  0.781939
			-0.816863 -0.164144  0.552984
			-0.882095 -0.438497 -0.172130
			-0.936340 -0.344575 -0.067347
			-0.686915 -0.686080 -0.239671
			-0.374470 -0.926460  0.038008
			-0.553177 -0.720460 -0.418249
			-0.460489 -0.881833 -0.101593
			-0.608453 -0.622428 -0.492309
			-0.546496 -0.817014 -0.183933
			-0.706289 -0.550091 -0.445597
			-0.598372 -0.794155 -0.106152
			-0.798358 -0.470735 -0.375544
			-0.912485 -0.327245 -0.245525
			-0.655109 -0.754864 -0.031819
			-0.715887 -0.697969  0.018575
			-0.953472 -0.268196 -0.137701
			-0.688040 -0.725530 -0.014386
			-0.942902 -0.331788 -0.029193
			-0.878899 -0.463680  0.111969
			-0.687411 -0.679413  0.256641
			-0.684650 -0.621605  0.380608
			-0.567286 -0.673134  0.474423
			-0.566127 -0.812856  0.136987
			-0.621744 -0.778929 -0.081880
			-0.591107 -0.778534 -0.210894
			-0.306788 -0.903474  0.299360
			-0.194470 -0.946539  0.257381
			-0.180864 -0.949845  0.255114
			-0.170342 -0.952545  0.252274
			-0.040452 -0.961638  0.271324
			-0.569424 -0.820833 -0.044600
			 0.063395 -0.949294  0.307932
			-0.567719 -0.822883 -0.023654
			-0.057227 -0.970895  0.232570
			-0.039990 -0.972837  0.228009
			 0.134131 -0.968585  0.209410
			 0.292670 -0.955207  0.043863
			 0.476280 -0.578634  0.662072
			 0.530628 -0.471442  0.704398
			 0.547542 -0.415480  0.726343
			 0.524042 -0.442158  0.727926
			 0.602568 -0.469390  0.645434
			 0.719219 -0.424873  0.549734
			 0.791189 -0.410972  0.452905
			 0.771351 -0.498369  0.395784
			 0.778139 -0.512118  0.363641
			-0.586236  0.004747 -0.810126
			-0.556658  0.189357 -0.808873
			-0.640465  0.201051 -0.741204
			-0.727899  0.257919 -0.635327
			-0.873390 -0.321296 -0.366004
			-0.769115  0.305294 -0.561479
			-0.923053  0.287154 -0.255960
			-0.945536  0.316454 -0.076282
			-0.947748  0.313869  0.057107
			-0.963617 -0.122130  0.237755
			-0.915699  0.332503  0.225694
			 0.544583  0.834921 -0.079600
			-0.855786  0.264732 -0.444464
			 0.833437 -0.457336  0.310204
			 0.852900 -0.478776  0.208172
			 0.898434  0.170751  0.404550
			-0.566252  0.134048 -0.813259
			-0.997810 -0.001637  0.066129
			-0.925932  0.081560 -0.368778
			-0.867945  0.091497 -0.488159
			-0.884686  0.236498 -0.401745
			-0.753846  0.207320 -0.623486
			-0.627154  0.538533  0.562725
			-0.617497  0.671737  0.409227
			-0.546722  0.803894 -0.234201
			-0.485491  0.779826 -0.395184
			-0.423391  0.802392 -0.420604
			-0.202770  0.803543 -0.559645
			-0.131054  0.829445 -0.542997
			-0.128817  0.910408 -0.393147
			-0.159815  0.926591 -0.340423
			 0.635891  0.730944  0.247718
			 0.470685  0.869340  0.150677
			-0.058687  0.998255  0.006541
			 0.632214  0.767578 -0.105500
			-0.227659  0.955884 -0.185628
			 0.490638  0.864453  0.109525
			-0.240398  0.964936 -0.105391
			 0.488613  0.862167  0.133887
			-0.196529  0.951241 -0.237733
			 0.548673  0.823222  0.145819
			 0.444786  0.892073  0.079820
			-0.897071  0.379565  0.226262
			-0.315394  0.891070  0.326375
			-0.259912  0.946996  0.188798
			-0.055145  0.888645 -0.455267
			 0.058528  0.995713  0.071630
			-0.609568  0.777063  0.156840
			-0.063424  0.987477  0.144451
			 0.522789  0.838677 -0.152684
			 0.242202  0.969806 -0.028538
			 0.638722  0.766783 -0.063856
			 0.306140  0.951454 -0.031841
			 0.687633  0.720959  0.085899
			 0.327179  0.942637 -0.066252
			 0.334724  0.940425 -0.059672
			-0.301426  0.802224 -0.515344
			 0.359247  0.933215  0.007196
			 0.395129  0.918572 -0.009918
			-0.048316  0.846143 -0.530762
			 0.450787  0.892263 -0.025647
			 0.463240  0.885472  0.036705
			 0.682451  0.723460  0.104240
			 0.677113  0.694738  0.242603
			 0.642710  0.679871  0.353129
			 0.646237  0.688488  0.329185
			 0.657884  0.686305  0.310120
			 0.662506  0.581498  0.472172
			 0.763775  0.220618  0.606610
			 0.876572  0.060470  0.477457
			 0.907186 -0.195809  0.372388
			 0.957586 -0.162535  0.237930
			 0.932761  0.338456 -0.124110
			 0.654969  0.472645  0.589595
			 0.699738  0.536745  0.471456
			 0.729074  0.414836  0.544391
			 0.737046  0.048369  0.674110
			 0.740709  0.290849  0.605604
			 0.741838  0.209922  0.636874
			 0.645111  0.696664  0.313832
			 0.639666  0.697756  0.322435
			 0.822183  0.269202  0.501543
			 0.780087  0.550788  0.296812
			 0.813815  0.469267  0.342773
			 0.858096  0.216718  0.465515
			 0.755274  0.571463  0.320923
			 0.769245  0.626916  0.123445
			 0.617534  0.783170  0.072780
			 0.934155  0.038172  0.354821
			 0.947846  0.113722  0.297749
			 0.949445  0.223617  0.220340
			 0.746422  0.642651  0.172785
			 0.963572  0.081235  0.254813
			 0.904497  0.411110  0.113463
			 0.999512 -0.012132 -0.028801
			 0.132328  0.373960 -0.917956
			-0.072192  0.932449 -0.354015
			-0.428182  0.606045 -0.670351
			-0.738793  0.241460 -0.629192
			 0.210306  0.186560 -0.959670
			 0.281203  0.114540 -0.952788
			 0.314433 -0.233383 -0.920143
			 0.107121 -0.130385 -0.985660
			-0.368737 -0.633127 -0.680575
			 0.110728 -0.847429 -0.519234
			-0.004310 -0.807270 -0.590167
			 0.294587 -0.854425 -0.427992
			 0.824255 -0.381182 -0.418692
			 0.660532  0.084434 -0.746035
			 0.639110  0.425291 -0.640833
			 0.380555  0.658683 -0.649088
			-0.099439 -0.995044 -0.000492
			 0.524042 -0.850955 -0.035421
			 0.927085 -0.371540 -0.049707
			 0.984288  0.131442 -0.117899
			 0.851718  0.516746  0.086896
			 0.544356  0.825591  0.148576
			-0.362210 -0.915028  0.177561
			-0.805001 -0.554232  0.211662
			-0.981335  0.004956  0.192242
		</DataArray>
	</PointData>
	<Points>
		<DataArray type="Float32" NumberOfComponents="3" format="ascii">
			-0.036258  0.020619  0.136639
			-0.038345  0.024298  0.145310
			-0.037593  0.025071  0.136101
			-0.041036  0.028233  0.136917
			-0.045131  0.025538  0.145982
			-0.048950  0.029857  0.142906
			-0.050643  0.026689  0.145910
			-0.047623  0.021473  0.143231
			-0.041679  0.020068  0.140081
			-0.043964  0.018527  0.128189
			-0.038931  0.019750  0.128230
			-0.038917  0.022391  0.129418
			-0.050822  0.019862  0.139952
			-0.051823  0.019524  0.127361
			-0.044816  0.018282  0.121558
			-0.051628  0.019286  0.120541
			-0.044220  0.017401  0.113325
			-0.051562  0.017734  0.111855
			-0.042952  0.016101  0.107940
			-0.051225  0.015401  0.102408
			-0.045910  0.013586  0.098717
			-0.041469  0.014691  0.101982
			-0.037905  0.013020  0.092889
			-0.040868  0.011504  0.088675
			-0.035689  0.012848  0.095722
			-0.033282  0.012158  0.098756
			-0.037074  0.016498  0.106475
			-0.038237  0.017731  0.110539
			-0.039798  0.018463  0.114520
			-0.039499  0.018942  0.121524
			-0.059802  0.019030  0.134809
			-0.062777  0.021319  0.125602
			-0.061166  0.025024  0.116524
			-0.054481  0.023186  0.143426
			-0.061494  0.021035  0.134977
			-0.056716  0.023960  0.111206
			-0.053214  0.017941  0.101621
			-0.051137  0.012798  0.095339
			-0.033336  0.010773  0.085796
			-0.035099  0.010766  0.082874
			-0.026669  0.008376  0.080775
			-0.028695  0.009352  0.078219
			-0.019052  0.004948  0.076425
			-0.022194  0.007660  0.072613
			-0.013773  0.001551  0.069913
			-0.016581  0.004133  0.066288
			-0.006250 -0.002477  0.048238
			-0.002879 -0.006465  0.047905
			-0.000925 -0.009006  0.038930
			-0.003684 -0.004823  0.039169
			 0.001059 -0.011372  0.028533
			-0.002290 -0.005847  0.029605
			-0.002938 -0.005096  0.022860
			 0.001525 -0.008573  0.017018
			-0.002713 -0.008683  0.013639
			 0.000693 -0.012267  0.012539
			 0.003768 -0.013220  0.015946
			-0.030576  0.010174  0.089677
			-0.024570  0.006944  0.083818
			-0.029102  0.008356  0.093204
			-0.023149  0.003363  0.085953
			-0.016561  0.001425  0.080455
			-0.010781 -0.001554  0.072695
			-0.005221 -0.004480  0.063421
			-0.007753 -0.002631  0.061138
			-0.000587 -0.007205  0.055760
			-0.004772 -0.005576  0.052737
			 0.002572 -0.009529  0.049053
			 0.004681 -0.011671  0.041122
			 0.006953 -0.013467  0.032140
			 0.009928 -0.015121  0.022764
			-0.031416  0.013396  0.100437
			-0.026580  0.010208  0.095055
			-0.019692  0.008988  0.088491
			-0.013280  0.005146  0.082271
			-0.006617  0.001599  0.074709
			-0.000259 -0.001445  0.065141
			 0.004315 -0.003514  0.056627
			 0.006694 -0.006649  0.048323
			 0.009368 -0.007904  0.041501
			-0.042033  0.017819  0.086782
			-0.029370  0.014620  0.077467
			-0.022232  0.011133  0.071516
			-0.016133  0.008925  0.064787
			-0.010934  0.000959  0.057122
			-0.010485  0.005777  0.056657
			-0.003138  0.002355  0.038950
			-0.002477  0.000825  0.031584
			-0.002863  0.000611  0.025524
			-0.004581 -0.004867  0.013681
			-0.003767  0.001198  0.016608
			 0.005096  0.004123  0.034136
			-0.006149  0.003588  0.048042
			 0.011905 -0.009343  0.033268
			 0.013984 -0.010620  0.025126
			 0.004734 -0.000409  0.056855
			-0.035778  0.016036  0.082133
			-0.064603  0.024273  0.126889
			-0.061615  0.028948  0.118261
			-0.057726  0.026969  0.110787
			-0.053493  0.023702  0.100967
			-0.051228  0.020645  0.093989
			-0.054742  0.029154  0.142380
			-0.059820  0.030143  0.134530
			-0.060919  0.031321  0.119830
			-0.057310  0.030100  0.112062
			-0.051427  0.028337  0.102010
			-0.039301  0.023276  0.087625
			-0.033134  0.021758  0.083921
			-0.014093  0.013160  0.066602
			-0.006214  0.010143  0.056368
			 0.010572  0.005774  0.014462
			 0.008328  0.006638  0.021572
			 0.002331  0.007302  0.029363
			 0.005012  0.006887  0.038732
			 0.001782  0.007457  0.035332
			 0.004087  0.006900  0.041770
			 0.001263  0.008018  0.040545
			 0.000360  0.008038  0.053338
			-0.002463  0.009139  0.051061
			-0.003168  0.008936  0.058074
			-0.011827  0.012320  0.070299
			-0.005285  0.002718  0.009299
			 0.001051  0.010275  0.013498
			 0.003161  0.008941  0.020707
			-0.020060  0.015538  0.073701
			-0.053114  0.031897  0.130389
			-0.062083  0.031136  0.128375
			-0.050936  0.031210  0.138534
			-0.043969  0.028389  0.129922
			-0.053501  0.031846  0.121868
			-0.045008  0.027535  0.122645
			-0.050270  0.030330  0.113625
			-0.045640  0.027187  0.115454
			-0.047406  0.029855  0.106043
			-0.042183  0.027112  0.098667
			-0.047793  0.026056  0.095863
			-0.034449  0.023784  0.091569
			-0.029978  0.021644  0.086833
			-0.027202  0.019026  0.079662
			-0.024723  0.019170  0.082197
			-0.018561  0.015204  0.075884
			-0.043399  0.025215  0.107893
			-0.039169  0.024228  0.102098
			-0.032567  0.021174  0.096144
			-0.027188  0.018856  0.090849
			-0.022156  0.016470  0.085733
			-0.032237  0.018475  0.098271
			-0.031706  0.015286  0.101639
			-0.035376  0.017145  0.107502
			-0.037837  0.019383  0.113162
			-0.038808  0.020122  0.118464
			-0.039871  0.021136  0.124707
			-0.029649  0.016134  0.098958
			-0.026437  0.015573  0.093643
			-0.026171  0.014606  0.094318
			-0.026076  0.013074  0.095386
			-0.020114  0.010707  0.089324
			-0.013384  0.007808  0.082699
			-0.015525  0.012534  0.079979
			-0.008891  0.009894  0.073253
			-0.006974  0.005247  0.075506
			-0.004987  0.007976  0.068911
			-0.002626  0.005820  0.064572
			-0.001294  0.001190  0.066530
			 0.003065  0.004387  0.055743
			 0.008512  0.002950  0.043330
			 0.010635  0.002229  0.030911
			 0.008759 -0.002065  0.047293
			 0.010599 -0.001003  0.040625
			 0.012997 -0.001320  0.032088
			 0.012326  0.001779  0.022765
			 0.015101 -0.003666  0.024541
			 0.014737  0.001482  0.015272
			 0.016825 -0.004999  0.016584
			 0.005457  0.005172  0.003616
			 0.002572  0.011991  0.007940
			-0.004306  0.005224  0.003953
			-0.007753 -0.002867 -0.000789
			 0.000043 -0.000031 -0.000049
			 0.007840 -0.000276  0.003402
			 0.001017 -0.008254  0.000799
			 0.008729 -0.005627  0.004211
			-0.006974 -0.010773 -0.000720
			 0.001061 -0.013418  0.003976
			 0.009219 -0.013858  0.007977
			 0.015058 -0.012058  0.006281
			 0.016619 -0.008628  0.004500
			 0.015288 -0.002572  0.004183
			 0.015063  0.002891  0.004726
			 0.010551  0.007263  0.004823
			 0.004852 -0.014806  0.011636
			 0.011488 -0.014116  0.016434
			 0.014589 -0.009827  0.015847
			 0.015519 -0.001088  0.013403
			 0.013486  0.005037  0.010571
			 0.009685  0.009195  0.009833
			-0.000492 -0.013800  0.007548
			-0.006317 -0.010763  0.003857
			-0.007321 -0.003516  0.005291
		</DataArray>
	</Points>
			<Polys>
				<DataArray type="Int32" Name="connectivity" format="ascii">
					2 1 0 
					5 4 1 3 
					7 4 6 
					8 1 4 7 
					0 1 8 
					10 0 8 9 
					11 2 0 10 
					8 7 12 9 
					12 13 9 
					15 14 9 13 
					17 16 14 15 
					19 18 16 17 
					23 22 21 20 
					24 21 22 
					26 21 24 25 
					27 18 21 26 
					28 16 18 27 
					29 14 16 28 
					10 9 14 29 
					31 13 30 
					32 15 13 31 
					12 30 13 
					33 12 7 6 
					34 30 12 33 
					35 17 15 32 
					36 19 17 35 
					36 37 19 
					20 19 37 
					21 18 19 20 
					20 37 23 
					39 38 22 23 
					41 40 38 39 
					43 42 40 41 
					45 44 42 43 
					49 48 47 46 
					51 50 48 
					52 50 51 
					53 50 52 
					54 53 52 
					55 53 54 
					56 53 55 
					38 57 24 22 
					40 58 57 38 
					42 58 40 
					57 59 25 24 
					58 60 59 57 
					42 61 60 58 
					44 62 61 42 
					64 63 62 44 
					66 65 63 64 
					48 68 67 47 
					50 69 68 
					25 71 26 
					59 72 71 25 
					60 73 72 59 
					61 74 73 60 
					62 75 74 61 
					63 76 75 62 
					65 77 76 63 
					67 78 77 65 
					68 79 78 67 
					80 23 37 
					82 43 41 81 
					83 45 43 82 
					85 84 45 83 
					87 51 49 86 
					88 52 51 87 
					90 89 52 88 
					54 52 89 
					47 66 46 
					67 65 66 
					47 67 66 
					86 49 46 
					92 86 46 
					92 46 84 
					85 92 84 
					64 84 46 66 
					44 45 84 64 
					56 50 53 
					70 69 50 56 
					69 93 79 68 
					70 94 93 69 
					81 41 39 96 
					23 80 96 39 
					97 31 30 34 
					98 32 31 97 
					99 35 32 98 
					100 36 35 99 
					101 37 36 100 
					80 37 101 
					103 34 33 102 
					105 99 98 104 
					106 100 99 105 
					108 96 80 107 
					110 85 83 109 
					113 91 112 
					115 114 91 113 
					117 116 114 115 
					119 118 116 117 
					110 120 118 119 
					109 121 120 110 
					90 124 123 122 
					88 113 124 90 
					87 115 113 88 
					86 117 115 87 
					92 119 117 86 
					85 110 119 92 
					125 109 83 82 
					127 103 126 
					127 97 34 103 
					104 98 97 127 
					102 128 126 103 
					6 5 128 102 
					131 130 126 129 
					133 132 130 131 
					130 104 127 126 
					132 105 104 130 
					134 106 105 132 
					137 107 136 135 
					138 108 107 137 
					140 139 108 138 
					141 125 139 140 
					135 136 106 134 
					136 101 100 106 
					107 80 101 136 
					139 81 96 108 
					128 129 126 
					142 134 132 133 
					143 135 134 142 
					144 137 135 143 
					145 138 137 144 
					146 140 138 145 
					3 129 128 5 
					11 129 3 2 
					2 3 1 
					147 144 143 
					143 149 148 147 
					142 150 149 143 
					133 151 150 142 
					131 152 151 133 
					129 11 152 131 
					153 147 148 
					155 154 147 153 
					153 148 156 155 
					155 157 154 
					29 152 11 10 
					28 151 152 29 
					71 148 149 26 
					154 145 144 147 
					157 146 145 154 
					72 156 148 71 
					155 156 157 
					161 160 159 158 
					160 121 141 159 
					121 109 125 141 
					159 141 140 146 
					146 157 158 159 
					162 160 161 
					120 121 160 162 
					162 163 120 
					161 163 162 
					164 163 161 
					95 165 163 164 
					118 120 163 165 
					166 116 118 165 
					114 116 166 
					167 91 166 
					168 166 165 95 
					73 157 156 72 
					158 157 73 74 
					158 74 75 161 
					161 75 76 164 
					164 76 77 95 
					95 77 78 168 
					169 166 168 
					170 167 166 169 
					172 171 167 170 
					174 173 171 172 
					112 171 173 111 
					91 167 171 112 
					170 93 94 172 
					169 79 93 170 
					168 78 79 169 
					5 6 4 
					102 33 6 
					151 28 27 150 
					82 81 139 125 
					48 49 51 
					91 114 166 
					113 112 124 
					124 112 111 123 
					177 176 175 
					179 178 177 
					175 180 179 177 
					182 181 179 180 
					183 178 179 181 
					181 184 183 
					182 185 184 181 
					188 187 186 185 182 
					180 189 188 182 
					175 190 189 180 
					176 190 175 
					192 191 185 186 
					186 187 193 192 
					188 194 193 187 
					189 195 194 188 
					190 196 195 189 
					197 184 185 191 
					198 183 184 197 
					198 199 178 183 
					177 122 123 176 
					178 199 122 177 
					122 199 89 90 
					89 199 198 54 
					54 198 197 55 
					55 197 191 56 
					192 193 94 70 
					193 174 172 94 
					193 194 174 
					173 194 195 111 
					111 195 196 
					196 190 176 
					111 196 176 123 
					192 70 56 191 
					26 149 150 27 
					68 48 50 
					194 173 174 
				</DataArray>
				<DataArray type="Int32" Name="offsets" format="ascii">
					3 7 10 14 17 21 25 29 32 36 40 44 48 51 55 59 63 67 71 74 78 81 85 89 93 97 100 103 107 110 114 118 122 126 130 133 136 139 142 145 148 152 156 159 163 167 171 175 179 183 187 190 193 197 201 205 209 213 217 221 225 228 232 236 240 244 248 252 255 258 261 264 267 270 273 276 280 284 287 291 295 299 303 307 311 315 319 323 327 330 334 338 342 346 350 353 357 361 365 369 373 377 381 385 389 393 397 401 404 408 412 416 420 424 428 432 436 440 444 448 452 456 460 464 468 472 475 479 483 487 491 495 499 503 506 509 513 517 521 525 529 532 536 540 543 547 551 555 559 563 567 570 574 578 582 586 590 593 597 600 603 606 610 614 618 621 624 628 632 636 640 644 648 652 655 659 663 667 671 675 679 683 687 690 693 697 701 704 707 710 714 717 720 724 728 732 735 739 744 748 752 755 759 763 767 771 775 779 783 787 791 795 799 803 807 811 815 819 822 826 829 832 836 840 844 847 850 
				</DataArray>
			</Polys>
		</Piece>
	</PolyData>
</VTKFile>
