<?xml version="1.0"?>
<VTKFile type="PolyData" version="0.1" byte_order="LittleEndian" compressor="vtkZLibDataCompressor">
	<PolyData>
		<Piece NumberOfPoints="2773" NumberOfVerts="0" NumberOfLines="0" NumberOfStrips="0" NumberOfPolys="3078">
		<PointData Normals="Normals">
		<DataArray type="Float32" Name="Normals" NumberOfComponents="3" format="ascii">
			-0.632809 -0.526991  0.567304
			-0.614349 -0.719312 -0.324294
			-0.586608 -0.708449 -0.392418
			-0.359426 -0.931293  0.059209
			-0.352804 -0.935673  0.006783
			-0.367054 -0.928106 -0.062365
			-0.388031 -0.912924 -0.126494
			-0.360004 -0.932734 -0.020081
			-0.280605 -0.957046 -0.072969
			 0.269078 -0.740763 -0.615522
			 0.584665 -0.447460 -0.676717
			 0.339438 -0.750515 -0.567017
			-0.308869 -0.865047 -0.395341
			-0.493335 -0.844484 -0.208488
			-0.429118 -0.902892  0.025394
			-0.305433 -0.580524  0.754786
			 0.100176 -0.561209  0.821589
			 0.153823 -0.855490  0.494445
			 0.139730 -0.571625  0.808530
			 0.193461 -0.274535  0.941915
			 0.045564 -0.311123  0.949277
			-0.121079 -0.347959  0.929658
			-0.251687 -0.369734  0.894399
			-0.361476 -0.395279  0.844446
			-0.498884 -0.444730  0.743862
			-0.570968 -0.530788  0.626306
			-0.315797 -0.831897 -0.456311
			-0.932563 -0.358774 -0.040081
			-0.991469 -0.129597 -0.013904
			-0.987114 -0.032552 -0.156670
			-0.904858 -0.143592 -0.400766
			-0.887847 -0.344674  0.304842
			-0.975992 -0.137660 -0.168790
			-0.688827 -0.144556 -0.710367
			-0.535724 -0.110407 -0.837144
			-0.365627 -0.119470 -0.923062
			-0.225542 -0.202251 -0.953009
			-0.083605 -0.202908 -0.975622
			 0.031557 -0.168996 -0.985111
			 0.119994 -0.301805 -0.945788
			 0.302650 -0.377411 -0.875194
			 0.496639 -0.359261 -0.790115
			 0.616174 -0.448951 -0.647127
			 0.796242 -0.422217 -0.433280
			 0.867644 -0.437346 -0.236478
			 0.812707 -0.582390  0.018134
			 0.702216 -0.590779  0.397332
			 0.180879 -0.450622  0.874198
			-0.580308  0.809929 -0.085193
			-0.316488  0.621739 -0.716432
			-0.337775  0.414287 -0.845147
			-0.186844  0.317869 -0.929542
			-0.041207  0.261615 -0.964292
			-0.045942 -0.073136 -0.996263
			-0.036662 -0.396614 -0.917253
			 0.281200  0.232430 -0.931076
			 0.492958  0.643783 -0.585266
			 0.573764  0.575398 -0.582848
			 0.807687  0.275212 -0.521441
			 0.958549  0.134019 -0.251442
			 0.949285  0.280775  0.141504
			 0.931092  0.130246  0.340739
			 0.869851  0.102615  0.482525
			 0.135672  0.048811  0.989551
			 0.076268  0.474778  0.876795
			 0.562422  0.820292  0.103930
			 0.398065  0.914676 -0.070088
			 0.343504  0.935448 -0.083319
			 0.358681  0.925036 -0.125127
			 0.417449  0.907362 -0.049298
			-0.268745 -0.564068  0.780771
			 0.118859  0.830253  0.544567
			 0.161359  0.908150  0.386300
			-0.022434  0.925295  0.378585
			 0.018994  0.899840  0.435807
			 0.090810  0.883742  0.459079
			-0.046026  0.898587  0.436376
			 0.201880  0.879738  0.430471
			 0.417600  0.880797  0.223174
			-0.515457  0.388829  0.763620
			 0.497264 -0.008046  0.867562
			 0.730367  0.017731  0.682825
			 0.530023  0.033497  0.847322
			 0.360082  0.180766  0.915240
			 0.268863  0.268617  0.924963
			 0.170257  0.313713  0.934129
			 0.035145  0.359661  0.932421
			-0.091321  0.370118  0.924485
			-0.269913  0.324519  0.906551
			-0.518041  0.218029  0.827101
			-0.694641  0.206021  0.689224
			-0.882790  0.211166  0.419631
			-0.947175  0.284550  0.147956
			-0.866129  0.498984 -0.028913
			-0.856217  0.001741 -0.516614
			-0.859183 -0.460893  0.222223
			 0.526477  0.549849 -0.648451
			 0.596814  0.566589  0.568146
			 0.615085  0.562275  0.552736
			 0.368217  0.883734 -0.288843
			 0.383862  0.847004 -0.367742
			 0.409848  0.826505 -0.385894
			 0.455395  0.861036 -0.226346
			 0.434734  0.890686 -0.132983
			 0.068477  0.930031  0.361044
			-0.185222  0.865190  0.465982
			-0.216250  0.864107  0.454484
			-0.529678  0.739215  0.415935
			-0.711248  0.673550  0.201139
			-0.476752  0.859492  0.184339
			-0.294323  0.955685 -0.006400
			 0.373675  0.242842 -0.895206
			 0.926407  0.111806  0.359540
			 0.579520  0.148385  0.801335
			 0.461319  0.231555  0.856485
			 0.337428  0.341346  0.877283
			 0.256143  0.413131  0.873907
			 0.136263  0.439059  0.888065
			-0.013817  0.273317  0.961825
			-0.142678  0.216781  0.965738
			-0.361985  0.063725  0.930003
			-0.559710 -0.020109  0.828445
			-0.684098  0.070578  0.725967
			-0.907319 -0.114714  0.404490
			-0.977574 -0.210147 -0.013656
			-0.989201 -0.080882 -0.122224
			-0.810797 -0.381453 -0.443962
			-0.435197 -0.543610 -0.717699
			-0.228824  0.666459 -0.709558
			-0.340969  0.579461 -0.740246
			-0.161047  0.331018 -0.929780
			-0.059617  0.321159 -0.945147
			 0.032875  0.222130 -0.974463
			 0.086619  0.039300 -0.995466
			 0.120613 -0.067640 -0.990393
			 0.264190  0.071134 -0.961844
			 0.428517  0.285229 -0.857332
			 0.560628  0.485554 -0.670771
			 0.698503  0.523595 -0.487792
			 0.692093  0.715504 -0.095186
			 0.597428  0.773969  0.209885
			 0.715632  0.628410  0.304912
			 0.681586  0.593872  0.427501
			 0.781921  0.447412  0.434076
			 0.603104 -0.673113  0.428000
			 0.234044 -0.525988  0.817655
			 0.225907 -0.353646  0.907690
			 0.088444 -0.297591  0.950588
			 0.075216  0.023076  0.996900
			 0.092701  0.365681  0.926112
			 0.003767  0.244583  0.969621
			-0.109196  0.193859  0.974933
			-0.216096  0.320518  0.922264
			-0.438846  0.219934  0.871231
			-0.659356 -0.096475  0.745615
			-0.821151 -0.388406  0.418154
			-0.829182 -0.558183 -0.029818
			-0.586635 -0.746740 -0.313431
			-0.244872 -0.881074 -0.404656
			-0.277144 -0.837095 -0.471659
			 0.273259 -0.647323 -0.711549
			-0.539903 -0.841632 -0.012661
			-0.453425 -0.884426  0.110437
			-0.432264 -0.901464  0.022583
			-0.430950 -0.897255 -0.095996
			 0.438975  0.665582 -0.603574
			-0.008207 -0.997985 -0.062922
			-0.272457 -0.882014  0.384472
			-0.009104 -0.669157  0.743065
			-0.140028 -0.824038  0.548957
			-0.096403 -0.988492  0.116579
			 0.017098 -0.997096 -0.074212
			 0.205428 -0.931187 -0.301147
			 0.401040 -0.863158 -0.306800
			 0.299609 -0.936052 -0.184504
			 0.123191 -0.860007 -0.495189
			-0.244278  0.255290 -0.935497
			-0.568233  0.132320 -0.812159
			-0.419965  0.079309 -0.904068
			-0.281889 -0.031817 -0.958919
			-0.141663 -0.144418 -0.979324
			-0.004229 -0.188144 -0.982132
			 0.065935 -0.157750 -0.985275
			 0.131908 -0.184561 -0.973929
			 0.275499 -0.358153 -0.892091
			 0.476072 -0.424240 -0.770309
			 0.687928 -0.294534 -0.663329
			 0.900146 -0.118916 -0.419042
			 0.988831 -0.054970 -0.138535
			 0.982125 -0.180924  0.051929
			 0.875128 -0.353702  0.330220
			 0.881642 -0.284370  0.376619
			 0.681971  0.727091 -0.079086
			 0.286511  0.917904  0.274525
			 0.373088  0.925196 -0.069402
			 0.406563  0.896423 -0.176441
			 0.433384  0.817397 -0.379526
			 0.484062  0.823957 -0.294584
			 0.447901  0.888997 -0.095232
			 0.393357  0.915742  0.081769
			 0.459547  0.885666  0.066423
			 0.379993  0.910929  0.160668
			 0.700952  0.701960  0.126169
			 0.773771  0.562917  0.290521
			 0.205584  0.815864  0.540464
			 0.023094  0.873360  0.486527
			-0.212547  0.975759 -0.052142
			 0.085848  0.489470 -0.867784
			 0.586750 -0.303482  0.750749
			 0.208849 -0.024673  0.977637
			 0.278117  0.082070  0.957035
			 0.199191  0.130357  0.971252
			 0.056924  0.181912  0.981666
			-0.119384  0.151487  0.981223
			-0.220133  0.139224  0.965483
			-0.358892  0.154985  0.920422
			-0.451845  0.272996  0.849299
			-0.499241  0.393605  0.771903
			-0.816398 -0.319573  0.481007
			-0.967129 -0.246349  0.063034
			-0.910745  0.369713  0.184001
			-0.776858  0.613211 -0.143049
			-0.408960  0.109608 -0.905946
			-0.429045 -0.081991 -0.899554
			 0.220821  0.804780 -0.550970
			 0.085400  0.772963 -0.628677
			 0.070600  0.575775 -0.814554
			 0.096115  0.424450 -0.900336
			 0.146524  0.255030 -0.955767
			 0.286734  0.222746 -0.931755
			 0.412480  0.306413 -0.857888
			 0.554482  0.394765 -0.732605
			 0.682796  0.410784 -0.604191
			 0.742746  0.505150 -0.439492
			 0.826104  0.550532 -0.120281
			 0.892767  0.420683  0.161222
			 0.836082  0.413367  0.360686
			 0.727769  0.446145  0.520872
			 0.668048  0.279542  0.689614
			 0.800033 -0.493596 -0.341042
			 0.359527 -0.061870 -0.931081
			-0.271059 -0.455512 -0.847960
			-0.387745 -0.568270 -0.725757
			-0.368875 -0.582303 -0.724469
			-0.267576 -0.631752 -0.727525
			-0.169216 -0.649454 -0.741334
			-0.077714 -0.665087 -0.742711
			 0.002491 -0.673860 -0.738855
			 0.061709 -0.700657 -0.710824
			 0.318112 -0.554607 -0.768905
			 0.502003 -0.255600 -0.826233
			-0.005435 -0.728286 -0.685252
			-0.266383 -0.799285 -0.538687
			-0.332569 -0.775174 -0.537125
			-0.416681 -0.517838 -0.747142
			 0.123835  0.544378 -0.829649
			-0.055264  0.454183 -0.889193
			-0.061330  0.379454 -0.923176
			 0.052264  0.367265 -0.928647
			 0.205853  0.381835 -0.901014
			 0.351130  0.373920 -0.858424
			 0.439309  0.358304 -0.823787
			 0.548396  0.334439 -0.766428
			 0.663054  0.287666 -0.691092
			 0.761549  0.354391 -0.542633
			 0.861823  0.459317 -0.215150
			 0.984414  0.132953 -0.115121
			 0.900487 -0.377873 -0.215258
			 0.836899 -0.546734 -0.026128
			 0.506675 -0.832618  0.223670
			 0.040362 -0.912690 -0.406655
			 0.346208 -0.937291 -0.040327
			-0.123739 -0.929119  0.348462
			-0.159321 -0.829411  0.535438
			-0.247574 -0.743220  0.621555
			-0.354129 -0.684907  0.636785
			-0.450251 -0.648404  0.613878
			-0.484160 -0.637432  0.599391
			-0.566638 -0.615240  0.548089
			-0.670190 -0.581518  0.461175
			-0.705328 -0.642562  0.299378
			-0.773693 -0.633335 -0.016937
			-0.833257 -0.503173 -0.229128
			-0.857553 -0.433590 -0.276772
			-0.493717 -0.643488 -0.584950
			-0.195401 -0.449782 -0.871501
			-0.415605 -0.269726 -0.868631
			 0.980179  0.161101  0.115307
			 0.476747  0.839728  0.259941
			 0.467754  0.883502  0.025112
			 0.389003  0.919184 -0.061465
			 0.364307  0.858628 -0.360608
			 0.429732  0.707771 -0.560706
			 0.472612  0.694658 -0.542299
			 0.459184  0.771006 -0.441247
			 0.470345  0.799637 -0.373305
			 0.620553  0.673462 -0.401700
			 0.763173  0.548944 -0.340922
			 0.551326  0.792569  0.260524
			 0.038772  0.897617  0.439068
			-0.250912  0.904735  0.344236
			-0.065987  0.988068  0.139169
			 0.416046  0.473347 -0.776433
			 0.551291 -0.436703  0.710893
			 0.197604 -0.157208  0.967594
			 0.207562 -0.045733  0.977152
			 0.170345  0.022458  0.985128
			 0.122668  0.187863  0.974505
			 0.147383  0.500576  0.853055
			 0.067596  0.642330  0.763441
			-0.147108  0.539431  0.829080
			-0.309507  0.539541  0.783008
			-0.275463  0.705490  0.652996
			-0.492334 -0.549168  0.675294
			-0.939935 -0.168732  0.296734
			-0.997263  0.066060  0.033207
			-0.970464 -0.110734 -0.214331
			-0.794167 -0.265892 -0.546443
			-0.434636 -0.208219 -0.876206
			 0.458358  0.642509 -0.614077
			 0.055318  0.650244 -0.757709
			 0.037030  0.504398 -0.862677
			 0.006194  0.400358 -0.916338
			 0.041019  0.234750 -0.971190
			 0.223913  0.195820 -0.954734
			 0.395559  0.280232 -0.874645
			 0.460653  0.279310 -0.842487
			 0.571518  0.288594 -0.768167
			 0.708037  0.338658 -0.619673
			 0.772272  0.559002 -0.301848
			 0.803978  0.578417  0.138032
			 0.861436  0.418157  0.288224
			 0.818816  0.394686  0.416849
			 0.686633  0.435192  0.582360
			 0.689857  0.477913  0.543781
			 0.023787 -0.874512  0.484420
			-0.297984 -0.808496  0.507484
			-0.237755 -0.749324  0.618050
			-0.197448 -0.693775  0.692597
			-0.228643 -0.650272  0.724479
			-0.344567 -0.693299  0.632937
			-0.459371 -0.624509  0.631638
			-0.490711 -0.564594  0.663654
			-0.557904 -0.593418  0.580171
			-0.606253 -0.656832  0.448363
			-0.648456 -0.737479  0.188757
			-0.771733 -0.621421 -0.135146
			-0.792236 -0.529747 -0.302870
			-0.642607 -0.685840 -0.341585
			-0.393012 -0.827761 -0.400441
			-0.060388 -0.661591 -0.747429
			 0.566399 -0.755622 -0.328981
			-0.527916 -0.484075 -0.697837
			-0.509295 -0.558973 -0.654345
			-0.450980 -0.650143 -0.611499
			-0.345551 -0.695344 -0.630152
			-0.172345 -0.677605 -0.714947
			-0.111744 -0.734844 -0.668968
			-0.073878 -0.830791 -0.551660
			 0.060218 -0.835789 -0.545739
			 0.289283 -0.764759 -0.575725
			 0.452880 -0.627489 -0.633370
			 0.450470 -0.618983 -0.643379
			 0.375127 -0.766307 -0.521588
			 0.439992 -0.855514 -0.272950
			 0.369045 -0.927197 -0.064115
			 0.280776 -0.915459  0.288270
			 0.293034  0.351655 -0.889083
			-0.181808  0.359506 -0.915260
			-0.124172  0.328496 -0.936307
			-0.083181  0.282200 -0.955743
			 0.022436  0.265006 -0.963986
			 0.196765  0.167832 -0.965979
			 0.344108  0.104959 -0.933045
			 0.436376  0.121302 -0.891550
			 0.567120  0.139249 -0.811779
			 0.713520  0.175371 -0.678332
			 0.854147  0.183123 -0.486723
			 0.971063  0.140284 -0.193278
			 0.997975  0.026406  0.057871
			 0.976377 -0.049538  0.210318
			 0.863571 -0.223281  0.452097
			 0.914284 -0.228107  0.334742
			 0.566430 -0.242903  0.787499
			 0.296736  0.292464  0.909072
			 0.170556  0.443585  0.879854
			 0.167128  0.437244  0.883678
			 0.035597  0.465672  0.884241
			-0.086266  0.559747  0.824161
			 0.004302  0.663097  0.748521
			-0.110962  0.636599  0.763171
			-0.362468  0.555857  0.748091
			-0.576794  0.556885  0.597652
			-0.764113  0.513048  0.391040
			-0.786176  0.525821  0.324714
			-0.694280  0.641708  0.325864
			-0.791092  0.585913 -0.175725
			-0.633281  0.519777 -0.573400
			-0.188902  0.505509 -0.841889
			 0.960564  0.199997 -0.193180
			 0.437647  0.780471 -0.446465
			 0.416606  0.759222 -0.500022
			 0.505581  0.732066 -0.456582
			 0.539541  0.751238 -0.380180
			 0.573615  0.748571 -0.332576
			 0.650988  0.660489 -0.374123
			 0.703170  0.671260 -0.234439
			 0.705396  0.707541 -0.042438
			 0.652908  0.746012  0.131061
			 0.519181  0.790104  0.325864
			 0.447994  0.787651  0.422974
			 0.491225  0.681985  0.541844
			 0.390723  0.737605  0.550703
			 0.133288  0.962884  0.234709
			 0.512689  0.603365 -0.610820
			 0.501866 -0.805007  0.316377
			-0.396804 -0.886424  0.238326
			-0.461951 -0.784750  0.413243
			-0.509978 -0.713741  0.480100
			-0.571787 -0.702544  0.423665
			-0.591333 -0.706165  0.389431
			-0.649241 -0.730824  0.210672
			-0.676088 -0.733099  0.073970
			-0.679684 -0.730192 -0.069630
			-0.623471 -0.739634 -0.253426
			-0.558136 -0.751272 -0.352242
			-0.356301 -0.800264 -0.482314
			-0.249826 -0.780127 -0.573575
			-0.278948 -0.730538 -0.623300
			-0.183374 -0.851616 -0.491044
			 0.397687 -0.254969 -0.881383
			 0.022531 -0.534069  0.845141
			-0.205421 -0.467536  0.859775
			-0.297571 -0.449082  0.842483
			-0.345737 -0.424832  0.836650
			-0.470078 -0.407037  0.783165
			-0.553871 -0.346574  0.757043
			-0.575830 -0.253638  0.777231
			-0.698414 -0.214728  0.682722
			-0.854454 -0.306285  0.419641
			-0.931155 -0.313268  0.186584
			-0.961537 -0.274521 -0.009161
			-0.966769 -0.236109 -0.098032
			-0.961668 -0.148008 -0.230843
			-0.866560 -0.045828 -0.496965
			-0.784229  0.029386 -0.619775
			-0.270714  0.349886 -0.896824
			 0.339423 -0.284758 -0.896496
			-0.193377 -0.229340 -0.953944
			-0.209513 -0.378979 -0.901376
			-0.223755 -0.476977 -0.849957
			-0.141119 -0.517352 -0.844057
			 0.059370 -0.560351 -0.826124
			 0.173247 -0.347566 -0.921512
			 0.355044 -0.317809 -0.879171
			 0.492902 -0.408292 -0.768340
			 0.648377 -0.458460 -0.607801
			 0.766000 -0.501871 -0.401709
			 0.912248 -0.352248 -0.209104
			 0.926959 -0.365278 -0.085546
			 0.795473 -0.587066  0.150258
			 0.606738 -0.616403  0.501913
			 0.893285 -0.351995  0.279537
			-0.805593 -0.096815  0.584505
			-0.667075 -0.071740  0.741529
			-0.795973 -0.042823  0.603816
			-0.832963  0.025511  0.552741
			-0.919078  0.106327  0.379460
			-0.977916  0.090459  0.188407
			-0.974075  0.147539  0.171492
			-0.954592  0.295465  0.038149
			-0.937546  0.344386  0.049055
			-0.831309  0.469804 -0.297001
			-0.564334 -0.613284 -0.552639
			-0.761115 -0.635807  0.128273
			-0.829491 -0.556464  0.047876
			-0.841108 -0.538707 -0.048294
			-0.778456 -0.547126 -0.307667
			-0.651121 -0.617474 -0.441324
			-0.617893 -0.666738 -0.416735
			-0.660261 -0.618195 -0.426485
			-0.637672 -0.630509 -0.442530
			-0.562151 -0.287737 -0.775367
			 0.451396 -0.173525 -0.875289
			 0.313345 -0.487845 -0.814753
			 0.308742 -0.580665 -0.753330
			 0.324036 -0.653915 -0.683664
			 0.420707 -0.666160 -0.615822
			 0.534411 -0.683915 -0.496653
			 0.577971 -0.716700 -0.390244
			 0.490989 -0.847398 -0.202104
			 0.511113 -0.846031 -0.151642
			 0.429777 -0.438079 -0.789544
			 0.863466  0.337739 -0.374646
			 0.119515  0.503222  0.855852
			-0.177537  0.554907  0.812748
			-0.305554  0.584321  0.751802
			-0.337321  0.645589  0.685149
			-0.286604  0.675754  0.679128
			-0.155464  0.696064  0.700947
			-0.018594  0.727342  0.686023
			 0.094091  0.762829  0.639717
			 0.018097  0.998838  0.044674
			 0.849757  0.274218 -0.450241
			 0.857991  0.434153 -0.274522
			 0.887346  0.444353 -0.123157
			 0.875504  0.482285  0.029889
			 0.897737  0.393994  0.197068
			 0.932435  0.235296  0.274228
			 0.925465  0.176065  0.335434
			 0.885382 -0.019145  0.464470
			 0.868513 -0.061392  0.491850
			 0.943023  0.330028 -0.042303
			 0.941257  0.100954 -0.322247
			 0.895958  0.407976  0.175539
			 0.884278  0.401205  0.238930
			 0.829878  0.379825  0.408701
			 0.713667  0.469974  0.519427
			 0.571627  0.605030  0.554239
			 0.391630  0.721482  0.571043
			 0.244638  0.786110  0.567612
			 0.237287  0.837721  0.491852
			 0.230227  0.861306  0.452933
			 0.046762  0.878726  0.475031
			-0.305786  0.907807  0.287022
			-0.421167  0.825185  0.376414
			-0.001356  0.983845  0.179017
			 0.099149  0.957140 -0.272126
			-0.160829  0.627733 -0.761633
			 0.320771 -0.938933 -0.124546
			 0.229640 -0.759740  0.608326
			 0.142307 -0.755175  0.639891
			 0.026738 -0.753523  0.656877
			-0.083268 -0.673286  0.734679
			-0.359139 -0.418715  0.834084
			-0.524680 -0.331787  0.783982
			-0.404759 -0.469252  0.784839
			-0.429257 -0.365398  0.825968
			-0.620667 -0.260439  0.739557
			-0.730372 -0.392460  0.559046
			-0.776368 -0.491351  0.394750
			-0.948234 -0.303514  0.093439
			-0.995790 -0.025933 -0.087922
			-0.955306  0.146569  0.256725
			-0.978549  0.162224 -0.126988
			 0.224663  0.451069 -0.863750
			 0.127942  0.786481 -0.604217
			 0.103657  0.713381 -0.693067
			 0.128036  0.687734 -0.714583
			 0.162971  0.719613 -0.674979
			 0.244807  0.735230 -0.632065
			 0.254154  0.638008 -0.726878
			 0.227582  0.375955 -0.898256
			 0.432135  0.121405 -0.893599
			 0.623033  0.055106 -0.780252
			 0.713144  0.058852 -0.698543
			 0.643175  0.024789 -0.765318
			 0.719898 -0.692577 -0.045651
			 0.693382 -0.575095  0.434151
			 0.929694 -0.253306  0.267406
			 0.644447 -0.340751 -0.684527
			-0.425046 -0.356908 -0.831837
			-0.844385 -0.243702 -0.477098
			-0.781898 -0.377403 -0.496188
			-0.688801 -0.459929 -0.560373
			-0.699808 -0.410194 -0.584816
			-0.803974 -0.077172 -0.589635
			-0.694822 -0.356747 -0.624463
			-0.400607 -0.804953 -0.437681
			-0.289476 -0.920208 -0.263479
			-0.273576 -0.903775 -0.329160
			-0.171300 -0.923367 -0.343583
			-0.038135 -0.958964 -0.280950
			 0.034454 -0.985678 -0.165081
			-0.093491 -0.963555  0.250640
			-0.157825 -0.777192  0.609150
			-0.348636 -0.918450  0.186823
			-0.373886 -0.747170 -0.549496
			-0.578934 -0.815368 -0.003324
			-0.478372 -0.877860  0.022850
			-0.320027 -0.939988  0.118347
			-0.172580 -0.959248  0.223742
			-0.191484 -0.957575  0.215370
			-0.212920 -0.926126  0.311378
			-0.452579 -0.754592  0.475145
			-0.691008 -0.614359  0.380883
			-0.748744 -0.581868  0.317509
			-0.801265 -0.548755  0.238418
			-0.838356 -0.531324  0.121873
			-0.730630 -0.682656 -0.012665
			-0.266694 -0.962084  0.057180
			-0.160338 -0.967348  0.196289
			-0.224566 -0.570055 -0.790321
			 0.745281 -0.611729 -0.265225
			 0.747179 -0.468397  0.471517
			 0.713889 -0.318781  0.623491
			 0.671017 -0.075605  0.737577
			 0.572339  0.100790  0.813800
			 0.527037  0.094917  0.844525
			 0.535911  0.202161  0.819714
			 0.346498  0.480574  0.805598
			 0.017987  0.607606  0.794035
			-0.059937  0.634663  0.770461
			-0.144891  0.720792  0.677839
			-0.305169  0.780520  0.545583
			-0.553550  0.776163  0.301916
			-0.968515  0.079458 -0.235934
			-0.914189  0.179002 -0.363617
			-0.620220  0.571259 -0.537578
			-0.009987  0.210333 -0.977579
			-0.307308  0.778896 -0.546701
			-0.316137  0.774027 -0.548579
			-0.281270  0.776074 -0.564444
			-0.228615  0.737253 -0.635762
			-0.076689  0.600825 -0.795693
			 0.069793  0.456683 -0.886888
			 0.292609  0.217612 -0.931142
			 0.416729  0.039364 -0.908178
			 0.506535 -0.067432 -0.859578
			 0.634411 -0.336287 -0.696013
			 0.736161 -0.458769 -0.497592
			 0.853611 -0.384704 -0.351214
			 0.861173 -0.198952 -0.467760
			 0.849423  0.041670 -0.526065
			 0.587504 -0.468300 -0.659950
			 0.888622  0.254893 -0.381288
			 0.851523  0.502826  0.148574
			 0.767567  0.569032  0.295030
			 0.666393  0.597678  0.445760
			 0.549320  0.647270  0.528478
			 0.557012  0.694218  0.455850
			 0.594168  0.721622  0.355284
			 0.561580  0.784616  0.262689
			 0.502680  0.843368  0.189853
			 0.540635  0.824963  0.164772
			 0.640186  0.761839  0.098808
			 0.656101  0.745923  0.114584
			 0.524679  0.849233  0.059295
			 0.054741  0.891175 -0.450345
			-0.278355  0.808803 -0.518030
			-0.112226  0.576575 -0.809300
			-0.774753  0.053562 -0.629991
			-0.828774  0.404828 -0.386327
			-0.734824  0.223707 -0.640304
			-0.616040  0.101615 -0.781133
			-0.483214  0.051170 -0.874005
			-0.332019  0.079152 -0.939946
			-0.081331 -0.000016 -0.996687
			 0.129656 -0.170728 -0.976750
			 0.283156 -0.158189 -0.945938
			 0.470353 -0.159676 -0.867912
			 0.624685 -0.270750 -0.732436
			 0.736218 -0.449417 -0.505971
			 0.873738 -0.456199 -0.168713
			 0.920711 -0.321476  0.221234
			 0.852146 -0.170829  0.494635
			 0.992003 -0.004037 -0.126149
			 0.468878  0.502772 -0.726205
			 0.335238  0.935712 -0.109809
			 0.283085  0.943198 -0.173896
			 0.257710  0.959831 -0.110947
			 0.174589  0.970555 -0.165954
			 0.168048  0.973774 -0.153375
			 0.253638  0.951695 -0.173044
			 0.346136  0.889672 -0.297780
			 0.455565  0.855353 -0.246642
			 0.496417  0.864967 -0.073502
			 0.556028  0.830485  0.033570
			 0.692876  0.720047  0.038154
			 0.714307  0.686256  0.137178
			 0.598295  0.799092  0.059119
			 0.344731  0.916147 -0.204537
			 0.268618  0.583783 -0.766187
			 0.988027 -0.099888 -0.117578
			 0.910868  0.235468  0.338930
			 0.821767  0.232742  0.520125
			 0.691625  0.292145  0.660535
			 0.567217  0.474584  0.673078
			 0.437165  0.621351  0.650238
			 0.244740  0.674160  0.696858
			 0.070029  0.703384  0.707352
			-0.002707  0.722543  0.691320
			-0.085643  0.718632  0.690096
			-0.123555  0.758958  0.639309
			-0.165719  0.845082  0.508305
			-0.299818  0.898794  0.319810
			-0.518040  0.838340 -0.169768
			-0.483404  0.719934 -0.498011
			-0.303616  0.612132 -0.730145
			-0.645633 -0.281366 -0.709924
			-0.938933 -0.149361 -0.309995
			-0.823850 -0.174268 -0.539353
			-0.689552 -0.300898 -0.658771
			-0.543469 -0.453816 -0.706181
			-0.418458 -0.773820 -0.475494
			-0.288922 -0.952686  0.094409
			-0.401266 -0.883119  0.243078
			-0.555434 -0.820941  0.132474
			-0.629763 -0.766780  0.124285
			 0.341344 -0.867501 -0.361836
			 0.425447 -0.797614 -0.427558
			 0.047208 -0.954541 -0.294317
			 0.029738 -0.999188  0.027196
			 0.025578 -0.940013  0.340179
			 0.076032 -0.776916 -0.624996
			-0.059499 -0.484124 -0.872974
			-0.198229 -0.960390  0.195848
			-0.284534 -0.940498  0.185750
			-0.209748 -0.968075  0.137248
			-0.109923 -0.980117  0.165189
			-0.010685 -0.675888  0.736926
			-0.034144 -0.198573  0.979491
			-0.215694  0.036731  0.975770
			-0.429043  0.033936  0.902646
			-0.542517  0.124961  0.830698
			-0.487614  0.396346  0.777909
			-0.883208  0.086903  0.460859
			-0.941211 -0.326729 -0.085849
			-0.945812 -0.227226 -0.231967
			-0.852711 -0.381983 -0.356332
			-0.663705 -0.175951 -0.727005
			 0.821787 -0.312946 -0.476163
			 0.872870 -0.174445  0.455705
			 0.758817 -0.158559  0.631708
			 0.663696 -0.078886  0.743831
			 0.562221  0.005215  0.826971
			 0.384721  0.089606  0.918673
			 0.089234  0.186405  0.978412
			-0.128234  0.280463  0.951260
			-0.321702  0.276590  0.905542
			-0.407982  0.350017  0.843231
			-0.486636  0.445002  0.751771
			-0.746523  0.423012  0.513579
			-0.820142  0.516447  0.246269
			-0.787549  0.584040 -0.196631
			-0.670501  0.525672 -0.523543
			-0.496579  0.448748 -0.742990
			-0.341750  0.223911 -0.912727
			-0.677532  0.363611 -0.639326
			-0.588857  0.337686 -0.734313
			-0.407635  0.345573 -0.845230
			-0.216602  0.450802 -0.865945
			 0.017756  0.563388 -0.826002
			 0.196355  0.580787 -0.790020
			 0.372811  0.584650 -0.720553
			 0.476748  0.656635 -0.584416
			 0.537360  0.730347 -0.421707
			 0.540234  0.783269 -0.307632
			 0.524203  0.847070 -0.087657
			 0.710440  0.682986  0.169721
			 0.830701  0.441838  0.338696
			 0.767853  0.417016  0.486313
			 0.786684  0.617354 -0.001175
			 0.506357  0.656824 -0.558735
			 0.374396  0.923865 -0.079386
			 0.347668  0.936201 -0.051521
			 0.331077  0.943555  0.009644
			 0.291023  0.922808  0.252450
			 0.253191  0.884200  0.392536
			 0.170827  0.880329  0.442537
			 0.087321  0.854696  0.511732
			-0.036820  0.830359  0.556012
			-0.187256  0.768113  0.612321
			-0.278411  0.807931  0.519361
			-0.432375  0.789787  0.435073
			-0.442054  0.843484  0.305160
			 0.050500  0.930468  0.362875
			 0.120526  0.981472  0.148950
			 0.061807  0.880351 -0.470279
			 0.965979  0.258612  0.002324
			 0.809986  0.304719  0.501068
			 0.718127  0.233856  0.655443
			 0.553585  0.221396  0.802825
			 0.352474  0.192341  0.915842
			 0.136860  0.189029  0.972387
			-0.067734  0.180537  0.981233
			-0.276451  0.101067  0.955699
			-0.406933  0.125150  0.904844
			-0.540553  0.132175  0.830862
			-0.641322  0.274664  0.716425
			-0.865130  0.058982  0.498068
			-0.995732  0.065526  0.064997
			-0.769730  0.636698  0.046160
			-0.658905  0.689817 -0.299995
			-0.145199  0.465708 -0.872945
			-0.369104 -0.162698 -0.915036
			-0.829802 -0.281865 -0.481644
			-0.726101 -0.346591 -0.593846
			-0.578231 -0.340211 -0.741556
			-0.395980 -0.282408 -0.873754
			-0.181479 -0.230163 -0.956081
			 0.038048 -0.207343 -0.977528
			 0.226135 -0.219374 -0.949072
			 0.382480 -0.222134 -0.896864
			 0.521736 -0.192278 -0.831156
			 0.670676 -0.162317 -0.723773
			 0.832873 -0.252833 -0.492339
			 0.839515 -0.487834 -0.239234
			 0.682215 -0.728196 -0.065673
			 0.469302 -0.805509  0.361815
			 0.771143 -0.315059 -0.553242
			 0.013540 -0.649033 -0.760639
			-0.307320 -0.932287  0.190775
			-0.264544 -0.950631  0.162228
			-0.270607 -0.958743  0.087087
			-0.304209 -0.952571  0.008075
			-0.288130 -0.918256 -0.271637
			-0.258335 -0.910356 -0.323288
			-0.221689 -0.953091 -0.206085
			-0.218076 -0.955649 -0.197934
			-0.203275 -0.958150 -0.201565
			-0.132478 -0.950639 -0.280598
			-0.003055 -0.947602 -0.319438
			-0.205339 -0.922643 -0.326445
			-0.741467 -0.617474 -0.262589
			-0.856917 -0.375917 -0.352674
			-0.223262 -0.245649 -0.943298
			 0.930982 -0.160329 -0.327975
			 0.717890 -0.240799  0.653184
			 0.562812 -0.313474  0.764838
			 0.384896 -0.358953  0.850299
			 0.203052 -0.333331  0.920685
			-0.039965 -0.429632  0.902119
			-0.251979 -0.411875  0.875709
			-0.392077 -0.361799  0.845800
			-0.513018 -0.365286  0.776775
			-0.617641 -0.296215  0.728544
			-0.752592 -0.289083  0.591639
			-0.898995 -0.304490  0.314792
			-0.968202 -0.244095 -0.054800
			-0.971967  0.213989 -0.097407
			-0.829234  0.395872 -0.394533
			-0.386513  0.293550 -0.874321
			 0.415962  0.652938 -0.632968
			-0.339238  0.618329 -0.708933
			-0.347802  0.495300 -0.796060
			-0.212940  0.562883 -0.798636
			-0.056407  0.467938 -0.881959
			 0.145740  0.464090 -0.873716
			 0.335161  0.523642 -0.783241
			 0.419564  0.599297 -0.681769
			 0.523827  0.562556 -0.639638
			 0.597945  0.501186 -0.625519
			 0.750536  0.337302 -0.568263
			 0.909060  0.106770 -0.402753
			 0.993805  0.040434 -0.103526
			 0.975384  0.111221  0.190411
			 0.870092  0.140531  0.472431
			 0.832588  0.442439 -0.333235
			 0.876997  0.478552  0.043167
			 0.608827  0.748873  0.261762
			 0.220822  0.974929  0.027413
			 0.285237  0.953577  0.096596
			 0.361293  0.931876 -0.032773
			 0.390508  0.920364 -0.020824
			 0.361231  0.915535  0.176940
			 0.197738  0.906028  0.374184
			 0.112482  0.905489  0.409191
			 0.080953  0.931046  0.355809
			 0.055486  0.960461  0.272828
			 0.264171  0.954492  0.138414
			 0.422511  0.888880  0.177136
			 0.249841  0.950365  0.185434
			-0.025919  0.997332  0.068239
			 0.014489  0.799868 -0.600001
			 0.955186  0.257225  0.146478
			 0.716150  0.292038  0.633911
			 0.555448  0.382410  0.738404
			 0.455686  0.382782  0.803634
			 0.393862  0.422047  0.816547
			 0.252591  0.454523  0.854170