<?xml version="1.0"?>
<VTKFile type="PolyData" version="0.1" byte_order="LittleEndian" compressor="vtkZLibDataCompressor">
	<PolyData>
		<Piece NumberOfPoints="770" NumberOfVerts="0" NumberOfLines="0" NumberOfStrips="0" NumberOfPolys="779">
		<PointData Normals="Normals">
		<DataArray type="Float32" Name="Normals" NumberOfComponents="3" format="ascii">
			 0.913652 -0.192022 -0.358285
			 0.916877 -0.115281 -0.382160
			 0.898430  0.011646 -0.438963
			 0.854973  0.119285 -0.504769
			 0.847703  0.125905 -0.515314
			 0.866840  0.042211 -0.496797
			 0.806795 -0.068469 -0.586850
			 0.711227 -0.074437 -0.699010
			 0.682483 -0.194726 -0.704485
			 0.552013 -0.406382 -0.728104
			 0.416512 -0.346367 -0.840564
			 0.468402 -0.162049 -0.868527
			 0.402027  0.740795 -0.538142
			-0.376879  0.673476  0.635918
			-0.510475  0.281618  0.812469
			-0.530330  0.359354  0.767864
			-0.617790  0.384764  0.685779
			-0.641068  0.507786  0.575487
			-0.654548  0.657256  0.373606
			-0.718922  0.671953  0.177848
			-0.751186  0.657587  0.057444
			-0.928925  0.044750  0.367554
			-0.424269 -0.577542  0.697453
			-0.413726 -0.362205  0.835247
			-0.678046 -0.105407  0.727422
			-0.853504  0.030456  0.520196
			-0.911777  0.006859  0.410628
			-0.888949 -0.073380  0.452091
			-0.900170 -0.063920  0.430822
			-0.970452  0.043321  0.237374
			-0.986698 -0.016482  0.161728
			-0.926711 -0.224447  0.301380
			-0.856739 -0.344656  0.383679
			-0.472977 -0.737988  0.481316
			 0.682966 -0.729654  0.034089
			 0.561347 -0.817734 -0.127283
			 0.295106 -0.695174 -0.655473
			 0.327520 -0.274828 -0.903991
			 0.123621 -0.274976 -0.953470
			-0.055851 -0.262938 -0.963195
			-0.210574 -0.228922 -0.950396
			-0.222404  0.013823 -0.974857
			-0.290408 -0.047023 -0.955747
			-0.359607  0.055252 -0.931467
			 0.152126 -0.036588 -0.987684
			 0.326577 -0.069674 -0.942599
			-0.084028  0.602393 -0.793765
			-0.568943  0.803316  0.176033
			-0.744378  0.654789  0.130969
			-0.754973  0.462963  0.464414
			-0.830628  0.502039 -0.240860
			-0.888589  0.458165  0.022234
			-0.877451  0.479658  0.002815
			-0.850214  0.453507 -0.267334
			-0.865414  0.438736 -0.242010
			-0.967781 -0.245081 -0.057750
			-0.981551 -0.129929  0.140269
			-0.992701  0.004042 -0.120536
			-0.993064  0.008176  0.117289
			-0.908680 -0.020611  0.416984
			-0.978811 -0.084091  0.186702
			-0.978880 -0.201638  0.033718
			-0.963740 -0.186352  0.190992
			-0.946165 -0.277284 -0.166988
			-0.801351 -0.434136 -0.411537
			-0.827838 -0.527172 -0.191765
			-0.311541 -0.931726  0.186624
			 0.974650  0.033979 -0.221141
			 0.966856  0.022820 -0.254302
			 0.956152  0.006867 -0.292789
			 0.900571  0.082996 -0.426713
			 0.864661  0.120163 -0.487772
			 0.880592  0.030120 -0.472916
			 0.847072 -0.119425 -0.517887
			 0.762209 -0.151599 -0.629330
			 0.714397 -0.250539 -0.653350
			 0.535963 -0.534871 -0.653190
			 0.392007 -0.508839 -0.766429
			 0.519438 -0.201528 -0.830404
			 0.693539  0.668037 -0.269685
			-0.133432  0.584273  0.800513
			-0.448699  0.367199  0.814760
			-0.519760  0.557475  0.647358
			-0.548608  0.636634  0.541966
			-0.513378  0.776085  0.366246
			-0.571234  0.805048  0.159965
			-0.756906  0.635148  0.153885
			-0.953526  0.248544  0.170336
			-0.446453 -0.814346  0.370836
			-0.022981 -0.847433  0.530404
			-0.085899 -0.616878  0.782357
			-0.510524 -0.202741  0.835620
			-0.819905  0.081359  0.566690
			-0.899066  0.066023  0.432807
			-0.888417 -0.051347  0.456157
			-0.925063 -0.029516  0.378665
			-0.976799  0.149056  0.153771
			-0.985246  0.101049  0.138128
			-0.898670 -0.141120  0.415304
			-0.726771 -0.240748  0.643307
			-0.309969 -0.369452  0.876028
			 0.775842 -0.311027  0.548936
			 0.963128 -0.181291  0.198791
			 0.976214 -0.104372 -0.190032
			 0.932243 -0.035641 -0.360074
			 0.878773  0.045870 -0.475030
			 0.841397  0.092734 -0.532402
			 0.853536 -0.025501 -0.520410
			 0.830417 -0.166573 -0.531658
			 0.780512 -0.198476 -0.592797
			 0.700700 -0.317489 -0.638921
			 0.500637 -0.610279 -0.613940
			 0.393595 -0.607726 -0.689748
			 0.494407 -0.268704 -0.826656
			 0.785903  0.536847 -0.306842
			 0.008985  0.562650  0.826646
			-0.415292  0.468949  0.779500
			-0.398125  0.792857  0.461383
			-0.338373  0.918554  0.204359
			-0.292775  0.955922 -0.022264
			-0.435346  0.888328 -0.146105
			-0.753134  0.653768 -0.073317
			-0.991938 -0.114820  0.053630
			-0.303036 -0.939711  0.158469
			 0.112522 -0.825423  0.553187
			-0.477310 -0.381969  0.791376
			-0.790854  0.077812  0.607038
			-0.871614  0.124853  0.474025
			-0.892475  0.002142  0.451092
			-0.951488  0.029682  0.306252
			-0.983007  0.169387  0.070753
			-0.990123  0.139648 -0.012427
			-0.971106 -0.077167  0.225829
			-0.731745 -0.227766  0.642395
			-0.185121 -0.256693  0.948598
			 0.563581 -0.235961  0.791643
			 0.706123 -0.356541  0.611775
			 0.927541 -0.325137  0.184268
			 0.941463 -0.209311 -0.264267
			 0.815992 -0.024299 -0.577552
			 0.766139  0.032656 -0.641845
			 0.805999 -0.105910 -0.582365
			 0.803006 -0.202855 -0.560385
			 0.773105 -0.238078 -0.587901
			 0.689885 -0.377731 -0.617557
			 0.513494 -0.646309 -0.564455
			 0.344902 -0.693375 -0.632672
			 0.365250 -0.384796 -0.847658
			 0.758799  0.458603 -0.462502
			 0.047633  0.743796  0.666708
			-0.426958  0.605412  0.671702
			-0.222733  0.910545  0.348278
			-0.025642  0.994776 -0.098814
			 0.018206  0.905221 -0.424551
			-0.258605  0.849746 -0.459408
			-0.675995  0.700256 -0.229505
			-0.959680  0.271530  0.072698
			-0.663220 -0.669208  0.335112
			 0.246371 -0.942580  0.225489
			 0.204374 -0.900582  0.383645
			-0.394284 -0.566237  0.723821
			-0.741697  0.031759  0.669982
			-0.811591  0.187106  0.553454
			-0.839481  0.090285  0.535836
			-0.921745  0.144705  0.359786
			-0.958377  0.267801  0.098971
			-0.961631  0.274338 -0.002042
			-0.981154  0.134443  0.138790
			-0.801741 -0.116281  0.586251
			-0.040300 -0.317548  0.947385
			 0.498347 -0.322788  0.804648
			 0.748485 -0.475531  0.462212
			 0.831558 -0.435173  0.345161
			 0.913207 -0.381254 -0.143867
			 0.693387 -0.146760 -0.705462
			 0.574083 -0.033642 -0.818105
			 0.694868 -0.124666 -0.708249
			 0.762757 -0.212075 -0.610922
			 0.739154 -0.277273 -0.613817
			 0.675465 -0.412229 -0.611404
			 0.483492 -0.668165 -0.565502
			 0.268012 -0.749791 -0.604965
			 0.371064 -0.483156 -0.793015
			 0.715636  0.522361 -0.463686
			-0.075588  0.851076  0.519573
			-0.424866  0.718185  0.551089
			-0.181002  0.955031  0.234849
			 0.156725  0.953225 -0.258455
			 0.288938  0.753562 -0.590474
			-0.147685  0.811269 -0.565713
			-0.713771  0.691550 -0.110857
			-0.905146  0.292155  0.308799
			-0.621168 -0.470584  0.626659
			 0.089601 -0.905955  0.413783
			 0.102975 -0.916165  0.387347
			-0.423346 -0.620358  0.660253
			-0.716362 -0.026884  0.697211
			-0.746344  0.226686  0.625767
			-0.729912  0.167010  0.662825
			-0.816428  0.272787  0.508953
			-0.900623  0.423131  0.099193
			-0.906235  0.420327  0.045429
			-0.886440  0.329384  0.325162
			-0.687063  0.086755  0.721400
			 0.044995 -0.306878  0.950685
			 0.616433 -0.478660  0.625216
			 0.841428 -0.529026  0.110142
			 0.829081 -0.500211  0.249825
			 0.853956 -0.469869 -0.223565
			 0.535156 -0.193704 -0.822245
			 0.378315 -0.041376 -0.924752
			 0.538852 -0.119882 -0.833826
			 0.662178 -0.234716 -0.711638
			 0.678594 -0.285975 -0.676556
			 0.634504 -0.432859 -0.640341
			 0.452854 -0.697487 -0.555370
			 0.305663 -0.784723 -0.539240
			 0.475639 -0.562296 -0.676454
			 0.702544  0.638188 -0.314879
			-0.227673  0.829262  0.510381
			-0.402095  0.782604  0.475237
			-0.170163  0.976712  0.130682
			 0.205267  0.915608 -0.345728
			 0.392355  0.651662 -0.649149
			-0.012411  0.792260 -0.610057
			-0.545396  0.798646 -0.254377
			-0.827613  0.548467  0.119335
			-0.646665 -0.166160  0.744456
			-0.099359 -0.745742  0.658785
			-0.219674 -0.839844  0.496392
			-0.602803 -0.544912  0.582837
			-0.708761 -0.053629  0.703408
			-0.638598  0.233234  0.733345
			-0.600314  0.216255  0.769972
			-0.700619  0.350467  0.621535
			-0.824139  0.551322  0.129764
			-0.834013  0.551231  0.023825
			-0.775605  0.409190  0.480624
			-0.435936  0.130603  0.890451
			 0.045402 -0.219116  0.974642
			 0.656643 -0.555989  0.509603
			 0.795922 -0.604743 -0.028182
			 0.750327 -0.626790  0.210102
			 0.770342 -0.580809 -0.263125
			 0.460010 -0.191660 -0.866982
			 0.317626 -0.039655 -0.947387
			 0.455773 -0.140610 -0.878920
			 0.582099 -0.244013 -0.775640
			 0.613514 -0.292851 -0.733375
			 0.553567 -0.476359 -0.683115
			 0.399313 -0.733410 -0.550145
			 0.323552 -0.803178 -0.500219
			 0.547507 -0.608385 -0.574547
			 0.916346  0.304292 -0.260225
			-0.027394  0.916212  0.399756
			-0.368127  0.826966  0.424981
			-0.143304  0.963026  0.228135
			 0.254851  0.922552 -0.289740
			 0.451011  0.612924 -0.648779
			 0.148881  0.747054 -0.647877
			-0.778638  0.607704  0.156263
			-0.673768 -0.077470  0.734871
			-0.352569 -0.617260  0.703339
			-0.480557 -0.676608  0.557913
			-0.707658 -0.421592  0.566993
			-0.674457 -0.031765  0.737631
			-0.517966  0.210402  0.829121
			-0.552066  0.241167  0.798161
			-0.675064  0.364013  0.641704
			-0.770195  0.591854  0.237713
			-0.803006  0.595960  0.003453
			-0.778893  0.454055  0.432619
			-0.309853  0.111120  0.944269
			 0.080156 -0.197477  0.977025
			 0.645078 -0.579596  0.497939
			 0.769548 -0.635745 -0.060202
			 0.743125 -0.639799  0.196018
			 0.786929 -0.558100 -0.263188
			 0.447342 -0.195815 -0.872664
			 0.277170 -0.041557 -0.959922
			 0.409587 -0.140223 -0.901430
			 0.530137 -0.235022 -0.814689
			 0.540841 -0.329862 -0.773745
			 0.487119 -0.516129 -0.704504
			 0.392813 -0.739209 -0.547054
			 0.332302 -0.814416 -0.475713
			 0.516721 -0.675282 -0.526301
			 0.933913 -0.008062 -0.357410
			 0.380977  0.912805  0.147117
			-0.310559  0.876451  0.367950
			-0.170524  0.957459  0.232794
			 0.219215  0.925281 -0.309515
			 0.443485  0.610336 -0.656362
			 0.311164  0.582212 -0.751137
			-0.363970  0.876825 -0.314172
			-0.765700  0.356928  0.535075
			-0.575720 -0.344992  0.741301
			-0.540331 -0.537506  0.647402
			-0.653509 -0.540885  0.529499
			-0.738172 -0.375717  0.560302
			-0.620698 -0.080674  0.779889
			-0.490612  0.157983  0.856937
			-0.560755  0.248737  0.789736
			-0.685331  0.375449  0.623987
			-0.780714  0.572912  0.249515
			-0.796755  0.603935  0.021077
			-0.765373  0.503009  0.401480
			-0.334824  0.123765  0.934117
			-0.008941 -0.205806  0.978552
			 0.583187 -0.632577  0.509645
			 0.755289 -0.651704 -0.069428
			 0.770255 -0.610860  0.183188
			 0.779036 -0.542828 -0.313752
			 0.383246 -0.200726 -0.901572
			 0.233615 -0.045985 -0.971241
			 0.351315 -0.143358 -0.925217
			 0.422064 -0.252230 -0.870771
			 0.419995 -0.370891 -0.828278
			 0.408656 -0.529566 -0.743344
			 0.351386 -0.728760 -0.587739
			 0.293762 -0.819637 -0.491833
			 0.410009 -0.726506 -0.551437
			 0.778706  0.032468 -0.626549
			 0.211521  0.976897 -0.030525
			-0.277748  0.912438  0.300520
			-0.217773  0.965732  0.141194
			 0.137693  0.916376 -0.375892
			 0.393641  0.619920 -0.678783
			 0.407471  0.403265 -0.819356
			-0.058652  0.716453 -0.695165
			-0.799807  0.063895  0.596847
			-0.611829 -0.464719  0.640079
			-0.689243 -0.454100  0.564568
			-0.758766 -0.460460  0.460706
			-0.750351 -0.385910  0.536699
			-0.619935 -0.155009  0.769190
			-0.542690  0.110314  0.832658
			-0.566948  0.241575  0.787535
			-0.713424  0.379245  0.589236
			-0.814960  0.548321  0.187573
			-0.785882  0.614159  0.072094
			-0.720970  0.513493  0.465324
			-0.372245  0.065559  0.925816
			-0.110793 -0.253940  0.960853
			 0.471896 -0.719433  0.509637
			 0.648401 -0.659224 -0.380787
			 0.655034 -0.734748 -0.176284
			 0.533788 -0.800888 -0.271385
			 0.325222 -0.707447 -0.627494
			 0.157759 -0.513210 -0.843639
			 0.059332 -0.446270 -0.892929
			 0.052253 -0.441924 -0.895529
			 0.108508 -0.496792 -0.861060
			 0.128560 -0.629167 -0.766564
			 0.140088 -0.736487 -0.661787
			 0.182364 -0.819464 -0.543344
			 0.160622 -0.710971 -0.684632
			-0.705074  0.692572  0.152362
			-0.684964  0.725464  0.067276
			-0.661573  0.745606  0.079954
			-0.471819  0.853612  0.220756
			 0.016110  0.982182  0.187240
			 0.543162  0.836876  0.067924
			 0.846447  0.527227  0.074566
			 0.940472  0.335814  0.052363
			 0.521969 -0.021412  0.852696
			 0.077367 -0.293827  0.952723
			-0.107963 -0.545433  0.831172
			-0.238194 -0.469320  0.850296
			-0.460029 -0.234730  0.856315
			-0.685796 -0.023883  0.727402
			-0.764969  0.091062  0.637598
			-0.810061  0.174657  0.559729
			-0.816552  0.219669  0.533843
			-0.754491  0.350173  0.555087
			-0.723399  0.518698  0.455682
			-0.676287  0.441817  0.589435
			-0.434997  0.043668  0.899372
			-0.101207 -0.361401  0.926902
			 0.473251 -0.836888  0.275048
			 0.746969 -0.655580 -0.110694
			 0.736675 -0.664339  0.126345
			 0.722350 -0.596223 -0.350327
			 0.372549 -0.211530 -0.903583
			 0.204876 -0.061751 -0.976838
			 0.269085 -0.199734 -0.942178
			 0.285954 -0.309546 -0.906869
			 0.262566 -0.430100 -0.863755
			 0.232522 -0.593464 -0.770542
			 0.179895 -0.733701 -0.655225
			 0.131043 -0.807599 -0.574988
			 0.080259 -0.572964 -0.815641
			-0.120933  0.793698 -0.596170
			-0.234989  0.967447  0.093953
			-0.345943  0.891540  0.292370
			-0.234475  0.964797  0.119112
			 0.081580  0.912209 -0.401521
			 0.348979  0.622653 -0.700369
			 0.436794  0.425416 -0.792611
			 0.434769  0.336579 -0.835279
			-0.639448 -0.392507  0.661094
			-0.643200 -0.428030  0.634889
			-0.656357 -0.467891  0.591839
			-0.661578 -0.516724  0.543425
			-0.658122 -0.449297  0.604159
			-0.553033 -0.245802  0.796075
			-0.535634  0.064851  0.841956
			-0.632632  0.259183  0.729795
			-0.760385  0.349393  0.547485
			-0.821738  0.518129  0.237251
			-0.776280  0.604664  0.178244
			-0.681202  0.488725  0.545079
			-0.385823  0.059593  0.920646
			-0.169075 -0.308344  0.936129
			 0.433557 -0.788167  0.436831
			 0.695790 -0.675040 -0.245349
			 0.716871 -0.697112 -0.011421
			 0.713582 -0.622159 -0.322053
			 0.450769 -0.363808 -0.815139
			 0.211917 -0.215867 -0.953149
			 0.180619 -0.306642 -0.934531
			 0.165242 -0.389255 -0.906187
			 0.136098 -0.506830 -0.851235
			 0.102019 -0.665565 -0.739335
			 0.060372 -0.758270 -0.649140
			-0.026372 -0.800275 -0.599053
			-0.460961 -0.182005 -0.868556
			-0.749490  0.644975 -0.149237
			-0.546672  0.813916  0.196701
			-0.495554  0.830872  0.253136
			-0.316105  0.945590  0.077053
			 0.062551  0.931003 -0.359612
			 0.458105  0.702056 -0.545213
			 0.650176  0.488894 -0.581596
			 0.663180  0.346879 -0.663225
			-0.245461 -0.485565  0.839032
			-0.294537 -0.449827  0.843151
			-0.307555 -0.544149  0.780584
			-0.362746 -0.531286  0.765605
			-0.461157 -0.411498  0.786133
			-0.550305 -0.215317  0.806724
			-0.660793  0.062066  0.747998
			-0.743593  0.216405  0.632644
			-0.773171  0.279183  0.569442
			-0.753595  0.466654  0.462957
			-0.692166  0.607096  0.390308
			-0.621499  0.484018  0.616008
			-0.355232  0.051204  0.933375
			-0.102831 -0.337671  0.935630
			 0.463989 -0.815181  0.346689
			 0.726449 -0.686111  0.039036
			 0.337547 -0.922134 -0.189024
			 0.245043 -0.858967 -0.449588
			 0.191571 -0.683942 -0.703934
			 0.127498 -0.536345 -0.834313
			 0.153570 -0.424942 -0.892099
			 0.254693 -0.415488 -0.873213
			 0.334294 -0.503071 -0.796974
			 0.391843 -0.653588 -0.647519
			 0.480060 -0.755712 -0.445467
			 0.555523 -0.746827 -0.365572
			 0.456854 -0.802203 -0.384387
			-0.551846  0.833416  0.029725
			-0.620918  0.765185 -0.170157
			-0.684563  0.718222  0.124618
			-0.462124  0.752133  0.469827
			-0.039912  0.919305  0.391516
			 0.348561  0.830249  0.434962
			 0.478059  0.829160  0.289747
			 0.379979  0.678472  0.628723
			-0.019057 -0.144062  0.989385
			-0.298862 -0.446088  0.843616
			-0.425105 -0.377080  0.822859
			-0.550732 -0.179905  0.815063
			-0.659191  0.029175  0.751410
			-0.743016  0.187843  0.642373
			-0.807887  0.266060  0.525862
			-0.835786  0.262819  0.482067
			-0.863019  0.317549  0.392888
			-0.855150  0.389936  0.341569
			-0.756073  0.300144  0.581607
			-0.427713  0.012449  0.903829
			 0.037324 -0.334911  0.941510
			 0.580826 -0.356456  0.731833
			 0.403607 -0.796008  0.451079
			 0.233262 -0.967951 -0.093062
			 0.261276 -0.857527 -0.443151
			 0.260929 -0.687184 -0.678008
			 0.255586 -0.508782 -0.822081
			 0.278988 -0.340756 -0.897803
			 0.342990 -0.306901 -0.887789
			 0.466651 -0.272982 -0.841260
			 0.590549 -0.453662 -0.667415
			 0.650993 -0.626667 -0.428364
			 0.797214 -0.496889 -0.342858
			 0.845902 -0.501595 -0.181252
			-0.130652  0.991346 -0.012764
			-0.366178  0.917814 -0.153399
			-0.685613  0.726105 -0.052025
			-0.794535  0.593064  0.130341
			-0.635563  0.748695  0.188454
			-0.384285  0.868680  0.312603
			-0.085549  0.956666  0.278338
			-0.079426  0.742847  0.664733
			-0.399558  0.067157  0.914245
			-0.602942 -0.174162  0.778543
			-0.690753 -0.176046  0.701334
			-0.698951 -0.154568  0.698266
			-0.711567 -0.083982  0.697581
			-0.835222  0.190221  0.515964
			-0.876488  0.292168  0.382631
			-0.893389  0.274583  0.355613
			-0.909540  0.299800  0.287848
			-0.894389  0.305588  0.326626
			-0.798538  0.175264  0.575864
			-0.336516 -0.160698  0.927865
			 0.228511 -0.419419  0.878561
			 0.432402 -0.367321  0.823471
			 0.116034 -0.961588  0.248764
			 0.169045 -0.985083 -0.032163
			 0.296869 -0.862122 -0.410627
			 0.308643 -0.692916 -0.651619
			 0.297773 -0.508389 -0.808005
			 0.269800 -0.324610 -0.906552
			 0.315763 -0.137329 -0.938847
			 0.406655 -0.019726 -0.913369
			 0.567715 -0.226918 -0.791333
			 0.727720 -0.463162 -0.505870
			 0.857443 -0.282398 -0.430166
			 0.982361  0.024789 -0.185346
			 0.472737  0.868606  0.148468
			-0.163474  0.975829  0.145030
			-0.469387  0.875989  0.110995
			-0.688894  0.718273  0.097510
			-0.721521  0.658949  0.212587
			-0.636833  0.701845  0.319151
			-0.418385  0.878658  0.230031
			-0.429121  0.828654  0.359427
			-0.700681  0.388416  0.598481
			-0.801085  0.230838  0.552247
			-0.855724  0.155890  0.493391
			-0.897492  0.071823  0.435144
			-0.915853  0.043225  0.399181
			-0.944370  0.144721  0.295331
			-0.952467  0.214608  0.216217
			-0.957377  0.201953  0.206504
			-0.914047  0.254851  0.315546
			-0.852724  0.289748  0.434635
			-0.764357  0.196751  0.614042
			-0.320282 -0.254669  0.912449
			 0.117624 -0.645480  0.754666
			 0.188506 -0.863432  0.467922
			-0.003789 -0.971596  0.236614
			 0.183217 -0.975709 -0.120100
			 0.552974 -0.802833 -0.222887
			 0.500858 -0.707066 -0.499198
			 0.516857 -0.499153 -0.695489
			 0.649514 -0.224464 -0.726462
			 0.620089  0.041375 -0.783439
			 0.594520  0.162721 -0.787444
			 0.723225 -0.114713 -0.681019
			 0.844846 -0.347144 -0.407094
			 0.928698 -0.111722 -0.353607
			 0.931485  0.252780 -0.261605
			 0.781763  0.571921  0.248504
			 0.322603  0.810311  0.489207
			-0.002901  0.918757  0.394813
			-0.261526  0.920660  0.289809
			-0.534616  0.817179  0.215415
			-0.748131  0.645205  0.154953
			-0.683662  0.715878  0.141863
			-0.742757  0.553130  0.377305
			-0.770939  0.495404  0.400284
			-0.747122  0.529594  0.401670
			-0.777346  0.446414  0.443224
			-0.821925  0.397833  0.407638
			-0.823900  0.385992  0.414969
			-0.806897  0.339540  0.483353
			-0.787064  0.229293  0.572674
			-0.594193  0.164792  0.787260
			-0.178322 -0.263229  0.948110
			 0.060586 -0.623395  0.779556
			-0.056334 -0.887416  0.457515
			 0.497415 -0.516488  0.697007
			 0.813717 -0.130120  0.566509
			 0.878614 -0.285724  0.382621
			 0.868320 -0.494449 -0.039263
			 0.996105 -0.059577  0.065005
			 0.942314  0.250306  0.222243
			 0.951704  0.282233  0.120847
			 0.923631  0.374834  0.080030
			 0.925609 -0.014546  0.378201
			 0.904996 -0.244703  0.347998
			 0.930701  0.026356  0.364831
			 0.831226  0.317262  0.456517
			 0.484160  0.573384  0.660924
			 0.292689  0.732324  0.614845
			 0.279867  0.674746  0.682929
			 0.096994  0.617810  0.780322
			-0.439607  0.696126  0.567586
			-0.298825  0.369642  0.879812
			-0.224915  0.450146  0.864165
			-0.261059  0.634743  0.727289
			 0.000731  0.661170  0.750236
			-0.222570  0.673826  0.704571
			-0.009177  0.542865  0.839770
			 0.045919  0.601694  0.797406
			 0.098064  0.596796  0.796378
			 0.153229  0.344269  0.926283
			 0.217271  0.157322  0.963350
			 0.361289  0.165064  0.917728
			 0.488331 -0.013776  0.872550
			 0.399168 -0.407977  0.821109
			 0.250284 -0.936264  0.246510
			-0.416259  0.851960 -0.317636
			 0.951730 -0.284138 -0.116083
			-0.985568  0.062963 -0.157138
			-0.880264 -0.342491  0.328383
			-0.904652  0.029768  0.425111
			 0.379325 -0.361471 -0.851734
			 0.985628 -0.156092 -0.064596
			 0.638276  0.256918 -0.725670
			 0.396277  0.298492 -0.868255
			-0.205681  0.821007 -0.532581
			-0.767039  0.288406  0.573126
			-0.634763 -0.356260  0.685679
			-0.236741 -0.621181  0.747053
			 0.494487 -0.597239  0.631496
			 0.858288 -0.443475 -0.258207
			 0.608494  0.013697 -0.793440
			 0.314273  0.156697 -0.936311
			-0.156984  0.818359 -0.552852
			-0.748137  0.382851  0.541956
			-0.690702 -0.380066  0.615208
			-0.315592 -0.756076  0.573368
			 0.406966 -0.849911  0.334709
			 0.691659 -0.671947 -0.264756
			 0.516119 -0.356454 -0.778821
			 0.189496  0.078111 -0.978770
			-0.264156  0.811894 -0.520624
			-0.762856  0.506248  0.402198
			-0.769392 -0.394687  0.502253
			-0.132780 -0.922404  0.362686
			 0.541816 -0.832338  0.116829
			 0.580225 -0.787972 -0.206008
			 0.340199 -0.605057 -0.719841
			-0.025159  0.127538 -0.991515
			-0.338845  0.885181 -0.318807
			-0.645636  0.577215  0.499977
			-0.569413 -0.468505  0.675480
			 0.311264 -0.905002  0.289975
			 0.669380 -0.739049  0.075740
			 0.445221 -0.885120 -0.135428
			 0.218497 -0.739654 -0.636530
			-0.191197 -0.007888 -0.981520
			-0.362147  0.880025 -0.307255
			-0.385561  0.578592  0.718730
			 0.071488 -0.459080  0.885514
			 0.577663 -0.726558  0.372048
			 0.583057 -0.793042  0.176432
			 0.455309 -0.887494  0.071048
			 0.308351 -0.666732 -0.678519
			-0.050396  0.342032 -0.938336
			-0.300685  0.904104 -0.303618
			-0.265417  0.597554  0.756626
			 0.334743 -0.381462  0.861646
			 0.602438 -0.611766  0.512651
			 0.574641 -0.714427  0.399226
			 0.469722 -0.869157  0.154685
			 0.771890 -0.360076 -0.523958
			 0.311504  0.774982 -0.549880
			-0.144504  0.976511 -0.159830
			 0.037601  0.333673  0.941939
			 0.481143 -0.560039  0.674431
			 0.513728 -0.708895  0.483272
			 0.368354 -0.923851  0.103990
			 0.865169 -0.489902 -0.107138
			 0.630622  0.763958  0.136686
			 0.133285  0.957876  0.254379
			 0.188890  0.456468  0.869458
			 0.363445 -0.340664  0.867096
			 0.358053 -0.776815  0.518031
			 0.677235 -0.651636  0.341649
			 0.727659  0.338160  0.596792
			 0.207564  0.254151  0.944629
			 0.322078 -0.319858  0.891042
			-0.495988 -0.017797 -0.868147
			 0.069282 -0.350048 -0.934166
			 0.320800 -0.873696 -0.365708
			 0.590982 -0.768646  0.244792
			 0.808087 -0.320518  0.494231
			 0.582290  0.511970  0.631526
			-0.050650  0.926311  0.373339
			-0.381329  0.857296  0.345877
			-0.676863  0.649269  0.346851
			-0.946545  0.283834 -0.153264
			-0.249276  0.006307 -0.968412
			 0.068457 -0.405769 -0.911408
			 0.083357 -0.940464 -0.329514
			 0.176434 -0.842119  0.509614
			 0.365673 -0.584723  0.724142
			 0.358055  0.068609  0.931177
			 0.013453  0.737251  0.675485
			-0.279943  0.815817  0.506038
			-0.558004  0.796904  0.231464
			-0.685254  0.530790 -0.498688
			-0.046244  0.101386 -0.993772
			-0.024025 -0.519450 -0.854163
			-0.063093 -0.943777 -0.324507
			-0.067085 -0.853857  0.516167
			-0.000864 -0.663966  0.747763
			 0.191512 -0.120118  0.974112
			 0.198153  0.771700  0.604329
			 0.045501  0.966563  0.252361
			-0.098035  0.970436 -0.220552
			-0.103919  0.672253 -0.732992
			 0.318217  0.270760 -0.908530
			 0.162919 -0.466537 -0.869368
			-0.115218 -0.939910 -0.321395
			-0.338747 -0.793010  0.506345
			-0.381120 -0.515912  0.767191
			-0.269734  0.046667  0.961803
			 0.120897  0.877100  0.464844
			 0.289967  0.950115 -0.114898
			 0.314017  0.850488 -0.421976
			 0.306867  0.710236 -0.633559
			 0.415632  0.439449 -0.796326
			 0.222306 -0.356360 -0.907517
			-0.200701 -0.945725 -0.255583
			-0.438738 -0.789543  0.429104
			-0.532248 -0.440127  0.723188
			-0.464447  0.179986  0.867118
			-0.023026  0.882915  0.468967
			 0.261427  0.957030 -0.125501
			 0.342258  0.815275 -0.467104
			 0.391017  0.698213 -0.599670
			 0.283112  0.293653 -0.913025
			-0.112674 -0.543877 -0.831566
			-0.273412 -0.945759 -0.175456
			-0.328156 -0.902045  0.280408
			-0.421294 -0.592092  0.686977
			-0.239514  0.174174  0.955142
			 0.174597  0.839566  0.514437
			 0.352226  0.930467  0.100835
			 0.389254  0.874621 -0.288996
			 0.394377  0.677209 -0.621172
			 0.584402  0.176066 -0.792133
			 0.153661 -0.747010 -0.646810
			-0.142184 -0.988105 -0.058583
			-0.260714 -0.924428  0.278317
			-0.313308 -0.612220  0.725965
			 0.068721  0.147167  0.986722
			 0.492277  0.634490  0.595891
			 0.597305  0.760056  0.256011
			 0.659965  0.732759 -0.165863
			 0.659302  0.613558 -0.434588
			 0.935637  0.014356 -0.352673
			 0.622391 -0.722207 -0.301739
			 0.177175 -0.983129  0.045458
			-0.005952 -0.925944  0.377614
			-0.012438 -0.635032  0.772386
			 0.518655 -0.043996  0.853851
			 0.780007  0.372839  0.502574
			 0.907604  0.379242  0.180087
			 0.926621  0.371455 -0.058265
			 0.922302  0.358873 -0.143418
			 0.425016 -0.778571  0.461724
			 0.945703 -0.167946  0.278282
			 0.985097 -0.171554  0.012353
			 0.628870 -0.777188  0.022390
		</DataArray>
	</PointData>
	<Points>
		<DataArray type="Float32" NumberOfComponents="3" format="ascii">
			-0.075089 -0.181652 -0.042515
			-0.075248 -0.177481 -0.046901
			-0.077694 -0.172587 -0.051403
			-0.081000 -0.165621 -0.054115
			-0.084734 -0.156991 -0.057645
			-0.091775 -0.136375 -0.064756
			-0.095598 -0.108365 -0.071935
			-0.096155 -0.076981 -0.074310
			-0.096370 -0.062326 -0.074720
			-0.091874 -0.049607 -0.076480
			-0.086658 -0.038552 -0.078060
			-0.080687 -0.026274 -0.077504
			-0.074302 -0.016627 -0.075127
			-0.076853 -0.017339 -0.073079
			-0.083973 -0.027777 -0.075401
			-0.090143 -0.035967 -0.076400
			-0.093612 -0.041632 -0.076958
			-0.095263 -0.046103 -0.076691
			-0.097685 -0.050546 -0.075753
			-0.101222 -0.055239 -0.073782
			-0.102498 -0.057143 -0.073335
			-0.103950 -0.059582 -0.072598
			-0.102745 -0.062407 -0.073346
			-0.101692 -0.066880 -0.074686
			-0.102508 -0.075300 -0.076873
			-0.102634 -0.087216 -0.077249
			-0.100508 -0.108132 -0.073471
			-0.096901 -0.130457 -0.066376
			-0.091218 -0.151161 -0.061902
			-0.090153 -0.158597 -0.059809
			-0.089093 -0.164393 -0.055029
			-0.086392 -0.173572 -0.049291
			-0.082432 -0.179733 -0.043092
			-0.078389 -0.185525 -0.040564
			-0.076497 -0.185244 -0.039972
			-0.081122 -0.183564 -0.054895
			-0.082823 -0.178458 -0.058553
			-0.086099 -0.172230 -0.062279
			-0.089653 -0.165033 -0.066369
			-0.097375 -0.143475 -0.074671
			-0.102092 -0.114325 -0.081730
			-0.104772 -0.082406 -0.082001
			-0.104965 -0.067359 -0.082514
			-0.101514 -0.051672 -0.083706
			-0.096660 -0.039168 -0.082634
			-0.088808 -0.025010 -0.081117
			-0.085152 -0.020878 -0.080734
			-0.085571 -0.020105 -0.078242
			-0.088206 -0.022580 -0.079944
			-0.093827 -0.030126 -0.080826
			-0.097493 -0.036236 -0.081464
			-0.099303 -0.041489 -0.082416
			-0.101121 -0.046584 -0.081463
			-0.103096 -0.053965 -0.082510
			-0.104544 -0.058477 -0.081650
			-0.105748 -0.063754 -0.081194
			-0.106498 -0.073893 -0.080689
			-0.106378 -0.080074 -0.081555
			-0.105373 -0.085800 -0.082155
			-0.104356 -0.095506 -0.080606
			-0.103331 -0.112852 -0.079850
			-0.099948 -0.135188 -0.075650
			-0.094355 -0.155296 -0.068548
			-0.092401 -0.161814 -0.066692
			-0.089326 -0.170558 -0.062948
			-0.085916 -0.178951 -0.057256
			-0.081428 -0.185405 -0.052622
			-0.072777 -0.166992 -0.031209
			-0.074225 -0.161637 -0.033995
			-0.074679 -0.156829 -0.036346
			-0.076279 -0.150272 -0.040078
			-0.079720 -0.142592 -0.043232
			-0.085043 -0.125889 -0.049728
			-0.088569 -0.099956 -0.057407
			-0.087646 -0.071991 -0.065270
			-0.087991 -0.058208 -0.066504
			-0.083147 -0.048223 -0.067486
			-0.077597 -0.039490 -0.071091
			-0.071935 -0.029257 -0.072476
			-0.067217 -0.020413 -0.069569
			-0.068327 -0.021149 -0.068024
			-0.079815 -0.033074 -0.071926
			-0.087586 -0.041492 -0.071852
			-0.089621 -0.044475 -0.071623
			-0.091823 -0.047605 -0.071223
			-0.095851 -0.051779 -0.069713
			-0.099845 -0.055576 -0.068328
			-0.101013 -0.056988 -0.066942
			-0.101946 -0.057731 -0.067486
			-0.099866 -0.059525 -0.068868
			-0.098610 -0.062602 -0.071136
			-0.096911 -0.067444 -0.072175
			-0.095368 -0.076901 -0.070391
			-0.093342 -0.100351 -0.058906
			-0.089280 -0.122135 -0.052744
			-0.083827 -0.141048 -0.046583
			-0.082774 -0.146904 -0.044100
			-0.083815 -0.151341 -0.040129