<?xml version="1.0"?>
<VTKFile type="PolyData" version="0.1" byte_order="LittleEndian" compressor="vtkZLibDataCompressor">
	<PolyData>
		<Piece NumberOfPoints="4368" NumberOfVerts="0" NumberOfLines="0" NumberOfStrips="0" NumberOfPolys="8189">
		<PointData Normals="Normals">
		<DataArray type="Float32" Name="Normals" NumberOfComponents="3" format="ascii">
			-0.155967 -0.591380 -0.791167
			 0.398062 -0.331803 -0.855251
			 0.775367 -0.178195 -0.605849
			 0.903303 -0.397821 -0.160569
			 0.903211 -0.397920  0.160841
			 0.775012 -0.178554  0.606197
			 0.397561 -0.332314  0.855285
			-0.156442 -0.591859  0.790714
			-0.536515 -0.711287  0.454116
			-0.636462 -0.761638  0.121753
			-0.180109 -0.983328  0.025041
			-0.609004 -0.772405 -0.180290
			-0.486238 -0.686453 -0.540698
			-0.832692  0.138396 -0.536164
			-0.977561  0.112268 -0.178241
			-0.831199  0.555411  0.025055
			-0.988985  0.085704  0.120676
			-0.884746  0.120292  0.450283
			-0.537181  0.302884  0.787209
			 0.036895  0.512661  0.857798
			 0.415889  0.673603  0.610979
			 0.347211  0.923493  0.163111
			 0.347309  0.923598 -0.162308
			 0.416261  0.673975 -0.610315
			 0.037400  0.513179 -0.857467
			-0.536729  0.303352 -0.787337
			-0.197303 -0.580254 -0.790175
			 0.373486 -0.358295 -0.855648
			 0.761220 -0.230033 -0.606324
			 0.873758 -0.459023 -0.160763
			 0.873668 -0.459119  0.160978
			 0.760870 -0.230391  0.606628
			 0.372993 -0.358809  0.855647
			-0.197759 -0.580743  0.789702
			-0.583872 -0.673957  0.452632
			-0.686271 -0.717162  0.121288
			-0.248359 -0.968347  0.024916
			-0.659814 -0.729632 -0.179674
			-0.532384 -0.652645 -0.539094
			-0.821346  0.194082 -0.536397
			-0.967777  0.177712 -0.178400
			-0.790407  0.612068  0.025098
			-0.980988  0.151916  0.120764
			-0.874540  0.179462  0.450526
			-0.514357  0.338850  0.787792
			 0.073346  0.509765  0.857182
			 0.461588  0.644586  0.609463
			 0.410163  0.897431  0.162429
			 0.410257  0.897536 -0.161610
			 0.461953  0.644958 -0.608793
			 0.073843  0.510287 -0.856828
			-0.513910  0.339333 -0.787877
			-0.244995 -0.563475 -0.788970
			 0.342041 -0.387202 -0.856202
			 0.739932 -0.289645 -0.607130
			 0.833591 -0.528365 -0.161107
			 0.833503 -0.528460  0.161253
			 0.739586 -0.289994  0.607385
			 0.341547 -0.387712  0.856169
			-0.245460 -0.563956  0.788482
			-0.636211 -0.626006  0.450945
			-0.740883 -0.660689  0.120756
			-0.327352 -0.944578  0.024774
			-0.715708 -0.675082 -0.178959
			-0.583575 -0.608921 -0.537267
			-0.803053  0.258428 -0.536955
			-0.950646  0.253662 -0.178682
			-0.737288  0.675109  0.025172
			-0.965904  0.228913  0.120948
			-0.857338  0.248013  0.451066
			-0.484171  0.379030  0.788615
			 0.116015  0.503065  0.856426
			 0.512702  0.606494  0.607703
			 0.481832  0.861225  0.161644
			 0.481934  0.861325 -0.160805
			 0.513078  0.606853 -0.607025
			 0.116523  0.503580 -0.856055
			-0.483717  0.379507 -0.788665
			-0.327561 -0.523138 -0.786785
			 0.278965 -0.432459 -0.857413
			 0.689110 -0.392408 -0.609215
			 0.746810 -0.644998 -0.162024
			 0.746722 -0.645094  0.162047
			 0.688766 -0.392761  0.609377
			 0.278474 -0.432968  0.857316
			-0.328025 -0.523611  0.786277
			-0.720540 -0.529081  0.448213
			-0.827703 -0.548205  0.119910
			-0.464749 -0.885102  0.024554
			-0.805176 -0.565774 -0.177741
			-0.666658 -0.519728 -0.534276
			-0.756740  0.370375 -0.538672
			-0.904526  0.386822 -0.179448
			-0.628209  0.777631  0.025358
			-0.923324  0.364296  0.121498
			-0.812295  0.367738  0.452710
			-0.421117  0.444801  0.790451
			 0.191589  0.481869  0.855042
			 0.596819  0.527371  0.604720
			 0.603393  0.781157  0.160344
			 0.603497  0.781254 -0.159479
			 0.597194  0.527728 -0.604038
			 0.192102  0.482380 -0.854638
			-0.420658  0.445278 -0.790427
			-0.344585 -0.512782 -0.786331
			 0.264434 -0.440940 -0.857698
			 0.676141 -0.413563 -0.609754
			 0.725818 -0.668475 -0.162263
			 0.725725 -0.668575  0.162267
			 0.675783 -0.413931  0.609900
			 0.263923 -0.441463  0.857587
			-0.345065 -0.513259  0.785809
			-0.736865 -0.506565  0.447686
			-0.844296 -0.522328  0.119740
			-0.493218 -0.869561  0.024505
			-0.822385 -0.540529 -0.177513
			-0.682833 -0.498889 -0.533713
			-0.744567  0.393607 -0.539159
			-0.892064  0.414660 -0.179663
			-0.602640  0.797609  0.025399
			-0.911597  0.392676  0.121644
			-0.800274  0.392685  0.453166
			-0.406193  0.457703  0.790895
			 0.207481  0.475759  0.854754
			 0.613423  0.508661  0.604133
			 0.628055  0.761523  0.160094
			 0.628151  0.761626 -0.159221
			 0.613795  0.509030 -0.603444
			 0.207996  0.476282 -0.854338
			-0.405733  0.458180 -0.790855
			-0.444877 -0.433484 -0.783694
			 0.165292 -0.483398 -0.859654
			 0.577420 -0.538337 -0.613823
			 0.574337 -0.801997 -0.164125
			 0.574248 -0.802102  0.163927
			 0.577090 -0.538712  0.613805
			 0.164825 -0.483908  0.859457
			-0.445314 -0.433942  0.783192
			-0.823802 -0.350939  0.445187
			-0.930938 -0.345241  0.119006
			-0.662286 -0.748855  0.024332
			-0.913337 -0.367109 -0.176202
			-0.769989 -0.353991 -0.530856
			-0.649497  0.532280 -0.542984
			-0.792115  0.582858 -0.181194
			-0.424589  0.905019  0.025767
			-0.816003  0.564835  0.122884
			-0.705006  0.542459  0.456843
			-0.301370  0.528022  0.793957
			 0.303597  0.424425  0.853049
			 0.704753  0.376959  0.601020
			 0.770013  0.617955  0.158781
			 0.770107  0.618049 -0.157956
			 0.705098  0.377320 -0.600389
			 0.304082  0.424929 -0.852625
			-0.300939  0.528496 -0.793806
			-0.548149 -0.371767 -0.749214
			 0.128004 -0.509669 -0.850795
			 0.553957 -0.613358 -0.562960
			 0.467873 -0.872593 -0.140274
			 0.467800 -0.872674  0.140011
			 0.553624 -0.613688  0.562927
			 0.127493 -0.510168  0.850573
			-0.548603 -0.372207  0.748664
			-0.898267 -0.238515  0.369090
			-0.969566 -0.225272  0.095885
			-0.767092 -0.641252  0.019157
			-0.959078 -0.241101 -0.148457
			-0.860274 -0.245101 -0.447050
			-0.626688  0.616545 -0.476586
			-0.728783  0.665799 -0.159956
			-0.287299  0.957597  0.021595
			-0.748364  0.655111  0.103832
			-0.668582  0.629646  0.395656
			-0.251329  0.575008  0.778588
			 0.413358  0.373715  0.830345
			 0.802844  0.273029  0.529996
			 0.856060  0.500739  0.128145
			 0.856146  0.500811 -0.127287
			 0.803188  0.273336 -0.529318
			 0.413893  0.374201 -0.829859
			-0.250851  0.575470 -0.778401
			-0.473182 -0.400434 -0.784698
			 0.212916 -0.520396 -0.826955
			 0.604004 -0.578068 -0.548650
			 0.516350 -0.839714 -0.168116
			 0.513342 -0.842646  0.162566
			 0.602470 -0.582151  0.546013
			 0.207283 -0.523875  0.826189
			-0.482484 -0.400632  0.778912
			-0.849476 -0.291612  0.439720
			-0.953638 -0.278206  0.114783
			-0.716300 -0.697515  0.019675
			-0.935490 -0.304028 -0.180070
			-0.790925 -0.300242 -0.533191
			-0.610847  0.574774 -0.544519
			-0.750568  0.635291 -0.181806
			-0.359130  0.932928  0.025893
			-0.775795  0.618811  0.123349
			-0.665842  0.588752  0.458286
			-0.262741  0.546726  0.795021
			 0.420882  0.397967  0.815157
			 0.789430  0.307258  0.531407
			 0.811428  0.562562  0.158454
			 0.811521  0.562664 -0.157617
			 0.789738  0.307579 -0.530763
			 0.421347  0.398453 -0.814679
			-0.262290  0.547207 -0.794839
			-0.490785 -0.386064 -0.781079
			 0.110156 -0.495279 -0.861722
			 0.518057 -0.591059 -0.618277
			 0.487408 -0.857221 -0.166151
			 0.487324 -0.857313  0.165924
			 0.517699 -0.591408  0.618243
			 0.109659 -0.495777  0.861499
			-0.491226 -0.386523  0.780575
			-0.855484 -0.268399  0.442842
			-0.960345 -0.252478  0.118291
			-0.738894 -0.673388  0.024164
			-0.945205 -0.275608 -0.175007
			-0.802800 -0.276553 -0.528233
			-0.591400  0.592136 -0.547376
			-0.730805  0.657597 -0.183003
			-0.324549  0.945509  0.026101
			-0.756871  0.641660  0.124176
			-0.646542  0.607901  0.460911
			-0.241640  0.553215  0.797222
			 0.349766  0.391006  0.851339
			 0.740979  0.305403  0.598063
			 0.830270  0.534622  0.157580
			 0.830379  0.534704 -0.156721
			 0.741366  0.305742 -0.597409
			 0.350314  0.391502 -0.850886
			-0.241142  0.553693 -0.797041
			-0.556940 -0.358838 -0.749035
			 0.115567 -0.512196 -0.851058
			 0.539329 -0.625773 -0.563499
			 0.447162 -0.883350 -0.140495
			 0.447088 -0.883432  0.140215
			 0.538991 -0.626112  0.563448
			 0.115040 -0.512718  0.850815
			-0.557410 -0.359303  0.748462
			-0.903537 -0.217782  0.369041
			-0.974494 -0.202908  0.095867
			-0.782152 -0.622793  0.019145
			-0.964378 -0.218962 -0.148429
			-0.865713 -0.225227 -0.447006
			-0.612080  0.630656 -0.477107
			-0.713251  0.682369 -0.160143
			-0.264312  0.964195  0.021629
			-0.733111  0.672116  0.103968
			-0.653741  0.644748  0.396135
			-0.237386  0.580387  0.778973
			 0.422292  0.363907  0.830205
			 0.809020  0.254419  0.529866
			 0.867617  0.480448  0.128106
			 0.867692  0.480538 -0.127251
			 0.809351  0.254748 -0.529201
			 0.422805  0.364425 -0.829717
			-0.236921  0.580869 -0.778755
			-0.107798 -0.600603 -0.792247
			 0.423717 -0.299346 -0.854901
			 0.787063 -0.117534 -0.605572
			 0.857303 -0.499316 -0.125362
			 0.931826 -0.325340  0.160789
			 0.786726 -0.117900  0.605939
			 0.423238 -0.299860  0.854958
			-0.108250 -0.601088  0.791818
			-0.478995 -0.750169  0.455862
			-0.575513 -0.808594  0.122313
			-0.100769 -0.994591  0.025187
			-0.547075 -0.817282 -0.180992
			-0.174415 -0.886029 -0.429573
			-0.840908  0.073569 -0.536154
			-0.983333  0.036332 -0.178149
			-0.872964  0.487142  0.025029
			-0.992653  0.008966  0.120667
			-0.891403  0.051503  0.450275
			-0.560041  0.259680  0.786715
			-0.004956  0.512854  0.858462
			 0.361062  0.703020  0.612697
			 0.272904  0.947979  0.163889
			 0.273003  0.948083 -0.163122
			 0.361421  0.703399 -0.612049
			-0.004462  0.513377 -0.858152
			-0.559600  0.260158 -0.786871
			-0.404028 -0.470035 -0.784748
			 0.208794 -0.467824 -0.858805
			 0.622812 -0.487442 -0.611969
			 0.642513 -0.748680 -0.163266
			 0.642423 -0.748778  0.163168
			 0.622462 -0.487796  0.612043
			 0.208291 -0.468333  0.858650
			-0.404497 -0.470504  0.784224
			-0.790481 -0.419723  0.446064
			-0.898169 -0.423169  0.119252
			-0.593071 -0.804781  0.024385
			-0.878657 -0.443552 -0.176703
			-0.736345 -0.418196 -0.531891
			-0.693657  0.475315 -0.541217
			-0.839019  0.513289 -0.180501
			-0.503477  0.863629  0.025594
			-0.861123  0.493469  0.122297
			-0.749505  0.480725  0.455133
			-0.347970  0.500671  0.792619
			 0.263876  0.448913  0.853725
			 0.669028  0.435636  0.602182
			 0.712915  0.682925  0.159268
			 0.713009  0.683028 -0.158403
			 0.669389  0.435993 -0.601521
			 0.264372  0.449424 -0.853303
			-0.347523  0.501145 -0.792516
			 0.164199 -0.986427  0.000015
			-0.307731 -0.951473 -0.000014
			-0.616808  0.787113  0.000042
			-0.916849  0.399233  0.000218
			 0.230830 -0.972994 -0.000439
			 0.741623 -0.670816  0.000017
			 0.216968 -0.976179 -0.000119
			 0.834048 -0.551692 -0.000082
			 0.975858  0.218406 -0.000299
			-0.989176 -0.146731 -0.000160
			-0.740744  0.671787 -0.000228
			-0.986176 -0.165699 -0.000082
			-0.930538 -0.366196 -0.000020
			-0.050422  0.998728  0.000000
			 0.774587 -0.632467  0.000333
			 0.606976 -0.772587  0.186250
			 0.592686 -0.644614  0.482904
			 0.320673 -0.593238  0.738402
			-0.190554 -0.981545 -0.016096
			-0.242407 -0.955411  0.168611
			-0.060503 -0.690041  0.721237
			-0.691186  0.625299  0.362303
			-0.798598  0.266578  0.539608
			 0.613305 -0.658278  0.436495
			 0.953679  0.073034  0.291826
			 0.998232 -0.059432  0.000220
			 0.926064  0.377367  0.000174
			 0.850580  0.397589  0.344147
			 0.998164  0.060568  0.000371
			 0.923585 -0.037320  0.381574
			 0.999703 -0.024380  0.000216
			 0.941336 -0.081067  0.327590
			 0.813205  0.581977  0.000184
			 0.667721  0.661181  0.342036
			 0.606419 -0.187582  0.772702
			 0.401750  0.746405  0.530543
			 0.575388 -0.200900  0.792823
			 0.567697  0.305319  0.764526
			 0.619627  0.255711  0.742074
			 0.207936  0.516229  0.830825
			 0.197112 -0.323515  0.925465
			 0.230765 -0.282577  0.931073
			 0.186353  0.191664  0.963607
			 0.202955  0.190743  0.960430
			-0.156426  0.449833  0.879307
			-0.073190 -0.220703  0.972591
			 0.024184 -0.299712  0.953723
			-0.148650  0.006162  0.988871
			-0.242490 -0.078019  0.967012
			-0.652873 -0.532874  0.538333
			-0.035891 -0.502192  0.864011
			 0.138632  0.022363  0.990091
			-0.199215  0.221663  0.954557
			 0.056109 -0.978957  0.196202
			-0.091164 -0.637965  0.764650
			 0.033629 -0.073330  0.996741
			-0.184222  0.687663  0.702269
			-0.219441  0.897887  0.381634
			-0.152409  0.924614  0.349086
			 0.053446  0.218556  0.974360
			-0.439210 -0.658865  0.610730
			 0.483099 -0.116912  0.867725
			 0.217229  0.633577  0.742558
			-0.975806  0.085970 -0.201028
			 0.103228  0.008538  0.994621
			-0.790643 -0.534308  0.298997
			-0.297459  0.949222 -0.102447
			 0.213155  0.673872  0.707433
			 0.450558  0.358477  0.817614
			 0.504711  0.265697  0.821384
			-0.114386 -0.575316  0.809893
			-0.214659 -0.638580  0.739011
			-0.486395 -0.365994  0.793391
			 0.326524 -0.650451  0.685781
			-0.852055  0.113470  0.511005
			-0.022760 -0.003428  0.999735
			-0.023910  0.225499  0.973950
			-0.891160  0.124783  0.436193
			-0.781075 -0.471206  0.409740
			-0.621709 -0.662983  0.417051
			-0.871338  0.447551  0.201167
			-0.933475  0.284763 -0.218024
			-0.905949  0.339380  0.253135
			-0.818184  0.094602  0.567121
			-0.659826  0.036412  0.750535
			 0.107084 -0.942167  0.317577
			 0.052326 -0.964319 -0.259519
			 0.557006 -0.779759  0.285867
			-0.894160  0.447747 -0.000861
			-0.766664  0.642047 -0.001374
			-0.835890  0.000823  0.548897
			-0.136896  0.212534  0.967517
			-0.015549 -0.046703  0.998788
			-0.227578 -0.691112  0.685983
			-0.528904 -0.848681 -0.000881
			-0.966076 -0.258257 -0.000958
			-0.945986  0.087946 -0.312052
			-0.814944  0.239384 -0.527789
			-0.487437  0.492642 -0.720908
			-0.670949 -0.674486 -0.308052
			-0.511893 -0.814328  0.273561
			-0.881007  0.330351 -0.338665
			-0.656062  0.042354 -0.753518
			 0.874937 -0.233021 -0.424485
			 0.097214 -0.916135 -0.388904
			 0.313051 -0.892483 -0.324766
			 0.650378  0.224670 -0.725625
			 0.876245 -0.163563  0.453257
			 0.924267  0.029038  0.380640
			-0.952072 -0.144228 -0.269736
			-0.583586  0.742544 -0.328719
			-0.951637 -0.147393 -0.269559
			-0.769045 -0.638067 -0.037950
			-0.848960 -0.486564 -0.206208
			-0.409321 -0.004049 -0.912381
			-0.241898 -0.018743 -0.970121
			-0.665935 -0.605429 -0.435874
			-0.716763  0.487394 -0.498696
			 0.607074 -0.772567 -0.186015
			 0.592683 -0.644619 -0.482901
			 0.320673 -0.593242 -0.738399
			-0.190551 -0.981546  0.016070
			-0.242400 -0.955413 -0.168608
			-0.060497 -0.690045 -0.721233
			-0.691096  0.625493 -0.362139
			-0.798669  0.266564 -0.539511
			 0.613294 -0.658269 -0.436523
			 0.953761  0.073117 -0.291538
			 0.850678  0.397647 -0.343837
			 0.923702 -0.037303 -0.381292
			 0.941393 -0.081051 -0.327429
			 0.667760  0.661213 -0.341898
			 0.606419 -0.187582 -0.772702
			 0.401743  0.746412 -0.530539
			 0.575388 -0.200900 -0.792823
			 0.567697  0.305319 -0.764526
			 0.619627  0.255711 -0.742074
			 0.207936  0.516233 -0.830823
			 0.197112 -0.323515 -0.925465
			 0.230765 -0.282577 -0.931073
			 0.186353  0.191664 -0.963607
			 0.202955  0.190743 -0.960430
			-0.156422  0.449840 -0.879304
			-0.073190 -0.220703 -0.972591
			 0.024183 -0.299712 -0.953723
			-0.148650  0.006162 -0.988871
			-0.242490 -0.078019 -0.967012
			-0.652873 -0.532874 -0.538333
			-0.035892 -0.502192 -0.864011
			 0.138632  0.022363 -0.990091
			-0.199215  0.221663 -0.954557
			 0.056109 -0.978957 -0.196202
			-0.091164 -0.637965 -0.764650
			 0.033629 -0.073330 -0.996741
			-0.184222  0.687663 -0.702269
			-0.219431  0.897893 -0.381626
			-0.152409  0.924614 -0.349086
			 0.053445  0.218556 -0.974360
			-0.439210 -0.658865 -0.610730
			 0.483099 -0.116912 -0.867725
			 0.217229  0.633577 -0.742558
			-0.975806  0.085970  0.201028
			 0.103228  0.008538 -0.994621
			-0.790643 -0.534308 -0.298997
			-0.297459  0.949222  0.102447
			 0.213155  0.673872 -0.707433
			 0.450557  0.358477 -0.817614
			 0.504711  0.265697 -0.821384
			-0.114386 -0.575316 -0.809893
			-0.214659 -0.638580 -0.739011
			-0.486395 -0.365994 -0.793391
			 0.326524 -0.650451 -0.685781
			-0.852056  0.113470 -0.511005
			-0.022760 -0.003428 -0.999735
			-0.023910  0.225499 -0.973950
			-0.891160  0.124783 -0.436192
			-0.781075 -0.471206 -0.409740
			-0.621709 -0.662983 -0.417051
			-0.871287  0.447727 -0.200998
			-0.933457  0.284760  0.218104
			-0.905949  0.339380 -0.253135
			-0.817853  0.095229 -0.567492
			-0.658732  0.036093 -0.751511
			 0.107065 -0.942153 -0.317624
			 0.052326 -0.964319  0.259519
			 0.557006 -0.779759 -0.285867
			-0.834900  0.000506 -0.550402
			-0.136132  0.211771 -0.967792
			-0.015549 -0.046703 -0.998788
			-0.226874 -0.690796 -0.686534
			-0.945986  0.087946  0.312052
			-0.814944  0.239384  0.527789
			-0.487355  0.492692  0.720930
			-0.670949 -0.674486  0.308052
			-0.511893 -0.814328 -0.273561
			-0.881007  0.330351  0.338665
			-0.656062  0.042354  0.753518
			 0.874969 -0.233118  0.424364
			 0.097345 -0.916140  0.388860
			 0.313021 -0.892539  0.324640
			 0.650556  0.224769  0.725435
			 0.876245 -0.163563 -0.453257
			 0.924267  0.029038 -0.380640
			-0.952096 -0.144257  0.269634
			-0.583640  0.742563  0.328580
			-0.951646 -0.147401  0.269525
			-0.769045 -0.638068  0.037946
			-0.848960 -0.486564  0.206208
			-0.409321 -0.004049  0.912381
			-0.241898 -0.018743  0.970121
			-0.665935 -0.605429  0.435874
			-0.716763  0.487394  0.498697
			 0.807308 -0.590131  0.000353
			 0.650167 -0.734214  0.195483
			 0.233230 -0.972422  0.000015
			 0.617048 -0.606450  0.501468
			 0.345359 -0.569529  0.745898
			-0.331720 -0.943240 -0.016105
			-0.357439 -0.933936  0.000058
			-0.294669 -0.945772  0.136695
			-0.003899 -0.691582  0.722288
			-0.926242  0.376930  0.000239
			-0.718230  0.560277  0.412595
			-0.595455  0.803389  0.000038
			-0.800395  0.261252  0.539551
			 0.685907 -0.727690  0.000001
			 0.617814 -0.654090  0.436431
			 0.237698 -0.971339 -0.000439
			 0.937686  0.146079  0.315286
			 0.999924  0.012351  0.000238
			 0.884434  0.466665  0.000189
			 0.801975  0.471781  0.366413
			 0.993853  0.110705  0.000385
			 0.920743 -0.011751  0.389992
			 0.999983  0.005891  0.000216
			 0.943426 -0.052394  0.327418
			 0.794809  0.606859  0.000184
			 0.646491  0.681709  0.342523
			 0.612226 -0.168954  0.772421
			 0.377188  0.758729  0.531093
			 0.575894 -0.209155  0.790317
			 0.520543  0.328849  0.787968
			 0.563359  0.308027  0.766646
			 0.190764  0.522301  0.831150
			 0.207745 -0.317252  0.925307
			 0.242502 -0.289884  0.925829
			 0.170301  0.167986  0.970968
			 0.169726  0.205435  0.963841
			-0.171270  0.444704  0.879150
			-0.065830 -0.222776  0.972644
			 0.034146 -0.298772  0.953713
			-0.166906  0.049658  0.984722
			-0.251724 -0.049205  0.966548
			-0.780078 -0.455268  0.429196
			-0.023738 -0.463106  0.885985
			 0.137846  0.026658  0.990095
			-0.206458  0.215465  0.954437
			-0.085048 -0.974188  0.209106
			-0.070034 -0.640469  0.764784
			 0.050529 -0.032266  0.998201
			 0.005939  0.710077  0.704099
			-0.248996  0.890223  0.381451
			 0.065257  0.935669  0.346793
			 0.131679  0.283855  0.949783
			-0.514899 -0.583732  0.627802
			 0.310884 -0.107856  0.944308
			 0.300777  0.626439  0.719102
			-0.976361  0.079651 -0.200933
			 0.103149  0.009255  0.994623
			-0.787017 -0.539575  0.299106
			-0.116153  0.983968 -0.135336
			 0.410017  0.652656  0.637124
			 0.413232  0.395300  0.820352
			 0.495937  0.301215  0.814442
			-0.231926 -0.487741  0.841617
			-0.358600 -0.593485  0.720542
			-0.480405 -0.455361  0.749572
			 0.275288 -0.594128  0.755797
			-0.852928  0.105211  0.511316
			-0.086898  0.020661  0.996003
			-0.293197  0.288636  0.911441
			-0.891973  0.118913  0.436170
			-0.777865 -0.476422  0.409815
			-0.741489 -0.568053  0.357085
			-0.892238  0.395190  0.218487
			-0.902846  0.366058 -0.225544
			-0.912718  0.327592  0.244193
			-0.818812  0.089219  0.567086
			-0.660094  0.032086  0.750497
			-0.077417 -0.908024  0.411703
			-0.281113 -0.952652 -0.115886
			 0.234584 -0.908222  0.346559
			-0.897136  0.441753 -0.000862
			-0.771019  0.636811 -0.001374
			-0.835900 -0.004815  0.548861
			-0.138407  0.211605  0.967506
			-0.015207 -0.046803  0.998788
			-0.222704 -0.692672  0.686009
			-0.523019 -0.852321 -0.000881
			-0.964312 -0.264766 -0.000957
			-0.928864  0.112429 -0.352948
			-0.766102  0.328191 -0.552610
			-0.402900  0.544132 -0.735930
			-0.875400 -0.298979  0.379851
			-0.087290 -0.371988  0.924124
			-0.801520  0.596681  0.039209
			-0.614060  0.230779 -0.754766
			-0.126438 -0.991974 -0.000146
			 0.902562 -0.327942 -0.278991
			 0.116974 -0.913218 -0.390321
			-0.122268 -0.950480 -0.285724
			 0.359293 -0.933225 -0.000200
			 0.968740  0.248079 -0.000288
			 0.649978  0.239649 -0.721178
			 0.772901 -0.390496  0.500136
			 0.940926 -0.105295  0.321825
			-0.984285 -0.176588 -0.000160
			-0.947255 -0.172987 -0.269783
			-0.542097  0.755209 -0.368498
			-0.761712  0.647916 -0.000228
			-0.994976 -0.100112 -0.000082
			-0.965781 -0.151692 -0.210372
			-0.937382 -0.348304  0.000141
			-0.837628 -0.537674  0.096364
			-0.841104 -0.428038 -0.330647
			-0.406224 -0.014521 -0.913658
			-0.246854 -0.037846 -0.968314
			-0.677018 -0.531990 -0.508560
			-0.644527  0.537759 -0.543507
			-0.083635  0.996496  0.000000
			 0.650269 -0.734188 -0.195236
			 0.617045 -0.606456 -0.501465
			 0.345359 -0.569533 -0.745895
			-0.331718 -0.943242  0.016086
			-0.294663 -0.945774 -0.136692
			-0.003893 -0.691586 -0.722284
			-0.718157  0.560508 -0.412410
			-0.800465  0.261237 -0.539454
			 0.617803 -0.654082 -0.436459
			 0.937777  0.146173 -0.314974
			 0.802080  0.471856 -0.366086
			 0.920863 -0.011731 -0.389709
			 0.943483 -0.052377 -0.327257
			 0.646529  0.681742 -0.342385
			 0.612226 -0.168954 -0.772421
			 0.377182  0.758735 -0.531088
			 0.575894 -0.209155 -0.790317
			 0.520543  0.328849 -0.787968
			 0.563359  0.308027 -0.766646
			 0.207745 -0.317252 -0.925307
			 0.190764  0.522305 -0.831148
			 0.242502 -0.289884 -0.925829
			 0.170301  0.167986 -0.970968
			 0.169726  0.205435 -0.963841
			-0.065830 -0.222776 -0.972644
			-0.171266  0.444711 -0.879148
			 0.034146 -0.298772 -0.953713
			-0.166906  0.049658 -0.984722
			-0.251724 -0.049205 -0.966547
			-0.780078 -0.455268 -0.429196
			-0.023738 -0.463106 -0.885985
			 0.137846  0.026658 -0.990095
			-0.206458  0.215465 -0.954437
			-0.070034 -0.640469 -0.764784
			-0.085048 -0.974188 -0.209106
			 0.050529 -0.032266 -0.998201
			 0.005939  0.710077 -0.704099
			 0.065257  0.935669 -0.346793
			-0.248986  0.890229 -0.381443
			-0.514899 -0.583732 -0.627802
			 0.131679  0.283855 -0.949783
			 0.310884 -0.107856 -0.944308
			 0.300777  0.626439 -0.719102
			 0.103149  0.009255 -0.994623
			-0.976361  0.079651  0.200933
			-0.787017 -0.539575 -0.299106
			 0.410017  0.652656 -0.637124
			-0.116153  0.983968  0.135336
			 0.495937  0.301215 -0.814442
			 0.413232  0.395300 -0.820352
			-0.358600 -0.593485 -0.720542
			-0.231926 -0.487741 -0.841617
			 0.275288 -0.594128 -0.755797
			-0.480405 -0.455361 -0.749572
			-0.086898  0.020661 -0.996003
			-0.852929  0.105211 -0.511315
			-0.293197  0.288636 -0.911441
			-0.777865 -0.476422 -0.409815
			-0.891973  0.118913 -0.436170
			-0.741489 -0.568053 -0.357085
			-0.892187  0.395388 -0.218336
			-0.902832  0.366046  0.225620
			-0.912718  0.327592 -0.244193
			-0.818486  0.089849 -0.567457
			-0.658998  0.031773 -0.751474
			-0.281113 -0.952652  0.115886
			-0.077426 -0.908007 -0.411739
			 0.234584 -0.908222 -0.346559
			-0.137638  0.210848 -0.967780
			-0.834908 -0.005125 -0.550366
			-0.015207 -0.046803 -0.998788
			-0.222003 -0.692352 -0.686559
			-0.766102  0.328191  0.552611
			-0.928864  0.112429  0.352948
			-0.402826  0.544173  0.735939
			-0.801520  0.596681 -0.039208
			-0.087290 -0.371988 -0.924124
			-0.875400 -0.298979 -0.379851
			-0.614060  0.230779  0.754766
			 0.117109 -0.913221  0.390273
			 0.902587 -0.327983  0.278860
			-0.122381 -0.950519  0.285547
			 0.650153  0.239732  0.720992
			 0.940926 -0.105295 -0.321825
			 0.772901 -0.390496 -0.500136
			-0.542156  0.755237  0.368353
			-0.947279 -0.173016  0.269682
			-0.965778 -0.151683  0.210391
			-0.837647 -0.537669 -0.096219
			-0.841104 -0.428038  0.330647
			-0.246854 -0.037846  0.968314
			-0.406223 -0.014521  0.913658
			-0.677018 -0.531990  0.508560
			-0.644527  0.537759  0.543507
			 0.894540 -0.446988  0.000365
			 0.760486 -0.616962  0.202532
			 0.390962 -0.920407  0.000017
			 0.704035 -0.497505  0.506778
			 0.430426 -0.503158  0.749377
			-0.226068 -0.973932 -0.018688
			-0.269734 -0.962935  0.000063
			-0.193626 -0.969530  0.150071
			 0.098593 -0.660665  0.744178
			-0.978280  0.207289  0.000204
			-0.809304  0.401062  0.429159
			-0.736616  0.676311  0.000035
			-0.832863  0.124985  0.539183
			 0.816972 -0.576678  0.000009
			 0.716496 -0.527796  0.456142
			 0.372811 -0.927907 -0.000522
			 0.914016  0.256141  0.314591
			 0.990177  0.139819  0.000238
			 0.846535  0.532333  0.000194
			 0.762243  0.526320  0.376793
			 0.975011  0.222157  0.000385
			 0.914532  0.108959  0.389562
			 0.990932  0.134367  0.000216
			 0.941593  0.076341  0.327987
			 0.724481  0.689295  0.000192
			 0.560814  0.749829  0.351063
			 0.628635 -0.067242  0.774788
			 0.271497  0.797867  0.538236
			 0.599067 -0.103894  0.793930
			 0.486923  0.356156  0.797533
			 0.532472  0.346003  0.772500
			 0.110672  0.546043  0.830415
			 0.244790 -0.248536  0.937181
			 0.276833 -0.219806  0.935440
			 0.151149  0.166950  0.974311
			 0.147511  0.200001  0.968628
			-0.232043  0.415164  0.879656
			-0.040192 -0.200489  0.978871
			 0.068277 -0.254304  0.964711
			-0.173983  0.020730  0.984530
			-0.240355 -0.081446  0.967262
			-0.733911 -0.520964  0.435856
			 0.037364 -0.428802  0.902626
			 0.136336  0.046807  0.989556
			-0.228250  0.161497  0.960115
			 0.010431 -0.972394  0.233113
			-0.002839 -0.587048  0.809547
			 0.051182 -0.013216  0.998602
			-0.077243  0.656086  0.750723
			-0.383600  0.827219  0.410560
			-0.047497  0.917712  0.394397
			 0.099677  0.268124  0.958214
			-0.459736 -0.581052  0.671581
			 0.302438 -0.067950  0.950744
			 0.241761  0.599886  0.762685
			-0.983878 -0.038359 -0.174677
			 0.106218  0.027851  0.993953
			-0.741763 -0.584371  0.329089
			-0.234338  0.949437 -0.208939
			 0.191482  0.708267  0.679480
			-0.224929  0.529896  0.817690
			 0.085148  0.456066  0.885863
			-0.553921 -0.371764  0.744958
			-0.432470 -0.560333  0.706397
			-0.346837 -0.365897  0.863611
			 0.031659 -0.425738  0.904292
			-0.859154 -0.018151  0.511395
			-0.094691  0.010378  0.995453
			-0.339287  0.214864  0.915815
			-0.900320 -0.011964  0.435064
			-0.732596 -0.540383  0.413871
			-0.695848 -0.630395  0.344090
			-0.944837  0.229702  0.233496
			-0.952502  0.203769 -0.226313
			-0.954432  0.163769  0.249477
			-0.823862 -0.027596  0.566118
			-0.659479 -0.058270  0.749461
			 0.019052 -0.892357  0.450928
			-0.202838 -0.970069 -0.133498
			 0.319901 -0.886838  0.333439
			-0.963875  0.266353 -0.000911
			-0.880800  0.473486 -0.001400
			-0.830218 -0.114265  0.545602
			-0.168466  0.171733  0.970632
			-0.010143 -0.041538  0.999085
			-0.153987 -0.691788  0.705490
			-0.464332 -0.885661 -0.000991
			-0.928344 -0.371721 -0.000978
			-0.884110 -0.101709 -0.456075
			-0.741672  0.201058 -0.639920
			-0.467812  0.427250 -0.773699
			-0.876247 -0.216820 -0.430326
			-0.090362 -0.324650  0.941508
			-0.862207  0.482738 -0.153501
			-0.351813  0.197379 -0.915024
			-0.052624 -0.998614 -0.000156
			 0.941098 -0.185896 -0.282449
			 0.174986 -0.878019 -0.445492
			-0.026853 -0.944459 -0.327529
			 0.507097 -0.861889 -0.000213
			 0.939200  0.343369 -0.000280
			 0.616225  0.280465 -0.735939
			 0.808084 -0.258551  0.529293
			 0.944635  0.028481  0.326886
			-0.960816 -0.277187 -0.000160
			-0.924428 -0.269421 -0.269897
			-0.634579  0.671635 -0.382381
			-0.840527  0.541769 -0.000237
			-0.976994 -0.213269 -0.000082
			-0.944188 -0.253360 -0.210517
			-0.895223 -0.445618  0.000145
			-0.798162 -0.593450  0.103709
			-0.801038 -0.491145 -0.342221
			-0.402184 -0.065222 -0.913233
			-0.217952 -0.072258 -0.973281
			-0.607422 -0.590712 -0.531128
			-0.714635  0.406912 -0.568964
			-0.222750  0.974876  0.000000
			 0.760583 -0.616928 -0.202272
			 0.704032 -0.497512 -0.506775
			 0.430426 -0.503163 -0.749373
			-0.226064 -0.973934  0.018665
			-0.193619 -0.969532 -0.150068
			 0.098601 -0.660669 -0.744174
			-0.809272  0.401303 -0.428993
			-0.832927  0.124963 -0.539089
			 0.716485 -0.527779 -0.456178
			 0.914096  0.256237 -0.314279
			 0.762346  0.526405 -0.376464
			 0.914648  0.108991 -0.389280
			 0.941647  0.076363 -0.327827
			 0.560852  0.749868 -0.350917
			 0.628635 -0.067242 -0.774788
			 0.271489  0.797873 -0.538231
			 0.599067 -0.103894 -0.793930