<?xml version="1.0"?>
<VTKFile type="PolyData" version="0.1" byte_order="LittleEndian" compressor="vtkZLibDataCompressor">
	<PolyData>
		<Piece NumberOfPoints="1215" NumberOfVerts="0" NumberOfLines="0" NumberOfStrips="0" NumberOfPolys="2437">
		<PointData Normals="Normals">
		<DataArray type="Float32" Name="Normals" NumberOfComponents="3" format="ascii">
			 0.158813  0.421188  0.892961
			 0.043451  0.302086  0.952290
			 0.040485  0.394364  0.918062
			 0.308169  0.365727  0.878223
			-0.007083  0.522116  0.852845
			 0.118141  0.459132  0.880477
			 0.243218  0.362659  0.899624
			 0.102304  0.234528  0.966711
			 0.107585  0.095179  0.989629
			 0.055680  0.332028  0.941625
			 0.072120  0.135249  0.988183
			 0.170052  0.389153  0.905341
			-0.158411  0.484895  0.860106
			-0.230781  0.496694  0.836681
			 0.031248  0.262165  0.964517
			-0.230078  0.444746  0.865601
			-0.030337  0.295241  0.954941
			-0.065309  0.407567  0.910837
			-0.027859  0.465664  0.884523
			-0.069277  0.544239  0.836065
			 0.139125  0.317951  0.937844
			 0.140555  0.081224  0.986736
			 0.186642 -0.127729  0.974089
			 0.312977 -0.203866  0.927623
			 0.034752  0.153674  0.987510
			 0.053213 -0.060405  0.996754
			-0.067173  0.491674  0.868185
			 0.387085  0.299575  0.872020
			 0.183915  0.324444  0.927853
			 0.007649  0.459230  0.888285
			-0.409461  0.539912  0.735417
			-0.362760  0.597663  0.714985
			-0.421412  0.533780  0.733138
			 0.036347  0.160868  0.986306
			-0.219096  0.365426  0.904688
			-0.105377  0.206889  0.972673
			-0.418158  0.488185  0.766041
			-0.489638  0.521802  0.698553
			 0.020361  0.229929  0.972994
			 0.010824  0.131700  0.991231
			 0.000893  0.050879  0.998704
			-0.113452  0.492473  0.862901
			-0.038752  0.493388  0.868946
			 0.087385  0.289578  0.953157
			-0.053171  0.404275  0.913091
			-0.137865  0.522392  0.841487
			 0.078455  0.486704  0.870037
			 0.166497  0.406981  0.898134
			 0.110455 -0.090694  0.989734
			 0.311815 -0.255078  0.915263
			 0.045951  0.081035  0.995652
			 0.451253 -0.526546  0.720500
			 0.137468 -0.501619  0.854097
			 0.470860 -0.693082  0.545829
			 0.001149 -0.338691  0.940897
			-0.312962  0.531334  0.787235
			 0.366434  0.408347  0.836050
			 0.307586  0.290635  0.906048
			 0.397622  0.206676  0.893970
			 0.482686  0.278795  0.830233
			 0.482966  0.287883  0.826963
			-0.191928  0.363462  0.911624
			 0.106674  0.272180  0.956315
			-0.622358  0.554677  0.552272
			-0.628705  0.506165  0.590362
			-0.601456  0.593959  0.534287
			-0.002298  0.145302  0.989385
			-0.411693  0.398014  0.819813
			-0.081789  0.112216  0.990312
			-0.268802  0.225628  0.936396
			-0.749196  0.576787  0.325609
			-0.737684  0.526630  0.422474
			 0.134694  0.030741  0.990410
			 0.076484  0.055578  0.995521
			 0.056748 -0.128053  0.990142
			-0.258399  0.496989  0.828391
			-0.059922  0.392982  0.917592
			 0.383492  0.197495  0.902180
			 0.244281  0.117275  0.962587
			 0.349022  0.336260  0.874707
			 0.159736  0.473496  0.866190
			 0.072958  0.434441  0.897741
			 0.031658  0.431613  0.901503
			-0.253239  0.460141  0.850964
			 0.195589  0.519134  0.832013
			 0.018090  0.061468  0.997945
			 0.059272 -0.086330  0.994502
			 0.303069 -0.588755  0.749344
			 0.451225 -0.660555  0.600053
			 0.200509 -0.722615  0.661531
			-0.075654 -0.724521  0.685088
			 0.482103 -0.854741  0.192339
			 0.433706 -0.831660  0.346757
			 0.331795 -0.938657  0.093997
			 0.059197 -0.550764  0.832559
			 0.010965 -0.665923  0.745940
			-0.351227  0.315758  0.881440
			-0.625668  0.362244  0.690883
			 0.358664  0.447606  0.819152
			 0.337760  0.373770  0.863837
			-0.052231  0.331911  0.941864
			 0.042776  0.371693  0.927370
			 0.375145  0.315141  0.871752
			 0.423590  0.439866  0.791890
			 0.462892  0.314601  0.828708
			 0.467320  0.241702  0.850407
			-0.235872  0.241495  0.941299
			-0.332654  0.202009  0.921159
			-0.827213  0.439683  0.349853
			-0.773579  0.534275  0.340772
			-0.810375  0.385042  0.441628
			-0.776374  0.617714  0.125190
			-0.700906  0.654759  0.282881
			 0.020133  0.091025  0.995645
			-0.478544  0.220456  0.849938
			-0.575208  0.377686  0.725595
			-0.363204  0.178484  0.914454
			-0.277628  0.054839  0.959122
			-0.142611  0.005232  0.989765
			 0.020018 -0.146204  0.989052
			-0.848697  0.519143 -0.101009
			-0.893465  0.423446 -0.149713
			-0.894768  0.402343  0.193676
			-0.809994  0.389825  0.438117
			-0.698509  0.362180  0.617180
			 0.312188 -0.130312  0.941041
			 0.157489 -0.148432  0.976302
			 0.354540 -0.533636  0.767811
			 0.180088 -0.552435  0.813870
			 0.053764  0.629192  0.775389
			-0.141682  0.598398  0.788572
			 0.523432 -0.031070  0.851501
			 0.605445  0.206617  0.768600
			 0.448236  0.418957  0.789658
			 0.571369  0.434990  0.695932
			 0.311110  0.564052  0.764890
			 0.025310  0.486779  0.873159
			-0.050470  0.571388  0.819127
			 0.144123  0.587704  0.796136
			 0.268092  0.580987  0.768493
			 0.127000 -0.422698  0.897328
			 0.458864 -0.867926  0.190128
			 0.218393 -0.794505  0.566627
			 0.319061 -0.906275  0.277245
			 0.249613 -0.842713  0.476999
			 0.026465 -0.736072  0.676386
			 0.050997 -0.798199  0.600231
			 0.381191 -0.923954 -0.031651
			 0.255003 -0.948797  0.186432
			 0.263740 -0.963346 -0.049047
			 0.088299 -0.994301  0.059731
			-0.485230  0.193744  0.852652
			-0.316793  0.132115  0.939249
			-0.760132  0.242576  0.602790
			-0.939528  0.226758  0.256647
			 0.137770  0.349571  0.926725
			-0.126005  0.303803  0.944366
			-0.106788  0.356406  0.928209
			-0.014073  0.318232  0.947908
			-0.189550  0.492356  0.849504
			-0.225249  0.382055  0.896268
			-0.162402  0.446060  0.880146
			 0.359481  0.172448  0.917080
			 0.222473  0.219612  0.949882
			 0.359556  0.550564  0.753392
			 0.455873  0.491376  0.742111
			 0.429385  0.160214  0.888797
			 0.436699  0.096663  0.894399
			 0.455593  0.319281  0.830960
			 0.499395  0.142201  0.854625
			-0.195798  0.146167  0.969690
			-0.868412  0.485531 -0.100599
			-0.963019  0.269245  0.010096
			-0.760498  0.482150 -0.434942
			-0.590250  0.285457  0.755063
			-0.616247  0.229743  0.753298
			-0.440061  0.109874  0.891221
			-0.133456 -0.235251  0.962729
			-0.325466 -0.063445  0.943423
			-0.420972 -0.016531  0.906923
			 0.099797 -0.534536  0.839233
			-0.762066  0.444374 -0.470942
			-0.893854  0.335118 -0.297860
			-0.929260  0.326135 -0.173527
			-0.851882  0.306538 -0.424654
			-0.774925  0.429417 -0.463780
			-0.834260  0.305886  0.458742
			-0.970970  0.228199  0.071715
			 0.523246 -0.376643  0.764430
			 0.474624 -0.687711  0.549350
			 0.321093 -0.714488  0.621616
			 0.414451 -0.721078  0.555227
			 0.502378 -0.737645  0.451106
			 0.512920 -0.695331  0.503416
			 0.167707 -0.789566  0.590305
			 0.081549  0.705428  0.704074
			 0.379244  0.682972  0.624278
			 0.168085  0.688976  0.705024
			 0.709776 -0.058861  0.701964
			 0.665455 -0.393460  0.634318
			 0.746819  0.200819  0.633982
			 0.831226 -0.016908  0.555677
			 0.780275  0.270777  0.563783
			 0.655360  0.486000  0.578193
			 0.318092  0.643958  0.695798
			 0.233952 -0.875823  0.422138
			 0.290506 -0.950054  0.114032
			 0.013112 -0.884692  0.465991
			-0.029171 -0.972513  0.231014
			 0.071444 -0.870672  0.486648
			 0.305052 -0.948010 -0.090665
			 0.271579 -0.951753 -0.142866
			 0.149007 -0.973379 -0.174155
			-0.064758 -0.997866 -0.008350
			-0.157482 -0.975777  0.151851
			-0.698926  0.101151  0.708005
			-0.425554  0.090361  0.900411
			-0.989996  0.132042 -0.049726
			-0.990162  0.138577  0.019351
			-0.997628  0.068789 -0.002694
			-0.976704  0.138801  0.163656
			-0.858166  0.087583  0.505846
			-0.086817  0.344751  0.934671
			-0.200892  0.233684  0.951333
			 0.073319  0.179279  0.981062
			-0.122734  0.239520  0.963103
			-0.606233  0.465029  0.645158
			-0.292811  0.356637  0.887171
			-0.592385  0.313180  0.742293
			-0.786259  0.363150  0.499919
			-0.536203  0.352273  0.767066
			-0.730378  0.441319  0.521330
			 0.197613 -0.000377  0.980280
			 0.267350 -0.071386  0.960952
			 0.305076 -0.050021  0.951013
			 0.384164  0.671770  0.633359
			 0.565849  0.610207  0.554492
			 0.530919  0.287791  0.797057
			 0.534417  0.386619  0.751615
			 0.442068 -0.066678  0.894500
			 0.519111  0.131570  0.844520
			 0.458020 -0.012752  0.888851
			-0.281616  0.172128  0.943962
			-0.773578  0.442802 -0.453325
			-0.889052  0.272082 -0.368181
			-0.982525  0.053288 -0.178340
			-0.731986  0.456442 -0.505823
			-0.713722  0.091659  0.694406
			-0.852407  0.127459  0.507106
			-0.574195 -0.024895  0.818340
			 0.132480 -0.676467  0.724460
			-0.392342 -0.318949  0.862751
			-0.141121 -0.773002  0.618509
			-0.518451 -0.236946  0.821624
			-0.886918  0.231519 -0.399720
			-0.963871  0.118625 -0.238497
			-0.867102  0.214881 -0.449399
			-0.812228  0.305591 -0.496891
			-0.766400  0.401426 -0.501486
			-0.737136  0.447520 -0.506317
			-0.935249  0.101805  0.339035
			-0.977580 -0.100421  0.185076
			 0.686487 -0.528622  0.499294
			 0.551535 -0.676739  0.487682
			 0.538529 -0.737154  0.408156
			 0.289944 -0.797163  0.529588
			 0.459330 -0.758408  0.462421
			 0.593148 -0.737809  0.322200
			 0.512300 -0.796298  0.321649
			 0.083318 -0.871549  0.483177
			 0.304549  0.711419  0.633350
			 0.485927  0.659009  0.574093
			 0.771936 -0.264012  0.578284
			 0.855475  0.103164  0.507465
			 0.829451 -0.322669  0.455955
			 0.858390 -0.149579  0.490707
			 0.828203  0.289441  0.479899
			 0.509258  0.607449  0.609641
			 0.690303  0.462396  0.556481
			 0.083133 -0.954926  0.284967
			 0.314903 -0.946948  0.064230
			-0.144427 -0.959503  0.241859
			-0.067683 -0.963001  0.260859
			 0.002402 -0.914302  0.405025
			 0.092104 -0.995550 -0.019945
			 0.199542 -0.941524 -0.271507
			 0.122171 -0.973240 -0.194626
			 0.060211 -0.950801 -0.303894
			-0.173964 -0.925501 -0.336430
			-0.056590 -0.996454 -0.062262
			-0.086000 -0.993620  0.072966
			-0.196913 -0.966870  0.162440
			-0.169676 -0.984674 -0.040336
			-0.187164 -0.980616  0.057976
			-0.705888  0.175293  0.686290
			-0.996697 -0.017015 -0.079406
			-0.994441 -0.051681 -0.091738
			-0.996025  0.087313  0.017608
			-0.996925 -0.000398 -0.078358
			-0.921508  0.301516  0.244768
			-0.884779  0.300352  0.356307
			-0.988426  0.113937  0.100161
			-0.474976  0.217216  0.852769
			-0.036603  0.108171  0.993458
			-0.073237  0.225499  0.971487
			-0.189695  0.264329  0.945593
			-0.378287  0.228732  0.896984
			-0.315184  0.259165  0.912958
			-0.857586  0.361433  0.365940
			-0.832229  0.153200  0.532846
			-0.839079  0.132273  0.527685
			-0.961430  0.130090  0.242342
			 0.048203  0.042864  0.997917
			 0.104207  0.067384  0.992270
			 0.219066 -0.131455  0.966814
			 0.163906 -0.194182  0.967175
			 0.195938  0.047881  0.979447
			 0.236797 -0.276879  0.931271
			 0.446311  0.716503  0.536125
			 0.706467  0.474933  0.524732
			 0.711928  0.589053  0.382328
			 0.612402  0.698646  0.369943
			 0.634642  0.321027  0.702973
			 0.719569  0.277508  0.636560
			 0.348082 -0.257712  0.901345
			 0.393787  0.036848  0.918463
			 0.626289  0.061293  0.777177
			 0.462273 -0.121198  0.878416
			-0.803612  0.251891 -0.539221
			-0.972001 -0.083806 -0.219523
			-0.799042 -0.158412  0.580032
			-0.892612 -0.073468  0.444800
			-0.708741 -0.287991  0.644009
			-0.614472 -0.610749  0.499409
			-0.431588 -0.622785  0.652587
			-0.250777 -0.948656  0.192774
			-0.860863 -0.011832 -0.508699
			-0.850561  0.077092 -0.520195
			-0.930589 -0.221860 -0.291175
			-0.860351  0.214856 -0.462205
			-0.712997  0.407698 -0.570453
			-0.864559 -0.232630  0.445445
			-0.881231 -0.459490  0.110907
			-0.752794 -0.601163 -0.268149
			 0.564365 -0.733066  0.379613
			 0.725693 -0.633243  0.269022
			 0.611147 -0.787182  0.082732
			 0.300457 -0.871221  0.388200
			 0.644420 -0.762849  0.052775
			 0.459422 -0.863420  0.208417
			 0.602283 -0.790498  0.111209
			 0.037348 -0.946223  0.321353
			 0.908758 -0.019331  0.416876
			 0.993507  0.083770  0.076989
			 0.868951 -0.441608  0.223398
			 0.938218 -0.286961  0.193390
			 0.900482  0.240608  0.362272
			 0.475074  0.631349  0.612946
			 0.696451  0.406787  0.591168
			-0.113678 -0.951640 -0.285410
			 0.004960 -0.980871 -0.194595
			 0.082896 -0.959545 -0.269077
			-0.314112 -0.866601 -0.387732
			-0.496765 -0.780582 -0.379362
			-0.380009 -0.785036 -0.489194
			-0.567608 -0.737392 -0.366162
			-0.244011 -0.950596 -0.191901
			-0.254343 -0.964832  0.066402
			 0.232501 -0.954922  0.184575
			-0.214565 -0.974035  0.072239
			 0.103415 -0.994555 -0.012849
			 0.218843 -0.975481 -0.023335
			 0.156083 -0.985633  0.064541
			-0.245256 -0.956843  0.155886
			-0.992879 -0.069043 -0.097080
			-0.999331  0.023636  0.027909
			-0.994981 -0.061454 -0.078969
			-0.999750  0.018957 -0.011874
			-0.994014 -0.017504 -0.107841
			-0.997782 -0.008219 -0.066054
			-0.996729  0.005550 -0.080620
			-0.989298  0.063769  0.131234
			-0.645642  0.175767  0.743137
			-0.162396  0.324140  0.931966
			-0.040248  0.329818  0.943186
			-0.295260  0.334019  0.895128
			-0.519447  0.262099  0.813314
			-0.980808  0.041742  0.190457
			-0.914788  0.035753  0.402349
			 0.084230  0.287602  0.954039
			 0.217382 -0.111276  0.969723
			 0.398491  0.222462  0.889784
			 0.302345  0.407875  0.861525
			 0.377435  0.014622  0.925921
			 0.325570 -0.264237  0.907845
			 0.742161  0.343756  0.575351
			 0.792909  0.599748  0.107688
			 0.843134  0.504721  0.185425
			 0.772287  0.340986  0.536004
			 0.691123  0.521322  0.500572
			 0.896276  0.366913  0.249127
			 0.744291 -0.004938  0.667837
			 0.645516 -0.075454  0.760010
			 0.353576 -0.303231  0.884893
			 0.626671 -0.158096  0.763079
			 0.534051 -0.105713  0.838817
			 0.638108 -0.013159  0.769835
			-0.891303 -0.092789 -0.443813
			-0.686641  0.322642 -0.651480
			-0.979349 -0.192242 -0.062606
			-0.759711 -0.582806  0.288403
			-0.518705 -0.848423 -0.105473
			-0.719374 -0.242414 -0.650951
			-0.695296 -0.509677 -0.506748
			-0.881434 -0.098546 -0.461912
			-0.773895 -0.115941 -0.622610
			-0.823273 -0.093316 -0.559923
			-0.735002  0.230745 -0.637596
			-0.448157 -0.798787 -0.401365
			 0.739628 -0.669150 -0.072037
			 0.683806 -0.669323 -0.290544
			 0.699084 -0.688551 -0.192820
			 0.718672 -0.672602 -0.176400
			 0.567253 -0.823517 -0.006606
			 0.993789 -0.102186  0.044052
			 0.961831 -0.140665 -0.234722
			 0.987935  0.032069 -0.151509
			 0.951313 -0.127806 -0.280479
			 0.973481 -0.051087 -0.222993
			 0.919857 -0.350312 -0.176477
			 0.882784 -0.463288 -0.077819
			 0.809379  0.307730  0.500208
			 0.985170  0.065571  0.158556
			 0.845069  0.277583  0.456952
			-0.303015 -0.848008 -0.434815
			-0.287020 -0.809668 -0.511915
			-0.563694 -0.596753 -0.571082
			-0.751963 -0.353480 -0.556421
			-0.665469 -0.613223 -0.425568
			-0.737852 -0.489275 -0.464956
			-0.652584 -0.467571 -0.596247
			-0.732438 -0.463698 -0.498517
			-0.535174 -0.667871 -0.517240
			-0.346840 -0.936520 -0.051306
			-0.413925 -0.802028 -0.430602
			-0.431318 -0.894838 -0.115019
			-0.254407 -0.958277  0.130312
			 0.434574 -0.900286 -0.025126
			-0.165668 -0.978818  0.120291
			 0.529375 -0.830575 -0.172937
			 0.549792 -0.821120 -0.153268
			 0.086642 -0.995357  0.041924
			 0.450414 -0.885001 -0.117898
			-0.985571  0.048672  0.162114
			-0.997983 -0.027891 -0.057026
			-0.998651 -0.022218  0.046937
			-0.997827 -0.065821  0.002927
			-0.998123 -0.010895  0.060272
			-0.999264 -0.034966  0.015780
			-0.991701 -0.026230  0.125859
			-0.999354  0.033061 -0.014118
			-0.992398 -0.083788 -0.090149
			-0.997040  0.066769 -0.038126
			-0.998315 -0.020047 -0.054459
			-0.842802  0.183833  0.505856
			-0.184628  0.447502  0.875017
			-0.061214  0.467668  0.881782
			 0.012087  0.453713  0.891066
			 0.099746  0.419435  0.902289
			-0.489819  0.337866  0.803694
			-0.373987  0.404320  0.834661
			-0.771225  0.267772  0.577503
			-0.980220  0.004684  0.197858
			-0.990126  0.019565  0.138807
			-0.937064  0.092121  0.336787
			-0.975208 -0.010236  0.221053
			 0.525448  0.340326  0.779796
			 0.530502  0.497999  0.685977
			 0.271640  0.505898  0.818706
			 0.572986  0.283523  0.768962
			 0.563885  0.103688  0.819318
			 0.703229  0.062265  0.708231
			 0.936543  0.349335 -0.029198
			 0.933454  0.283292 -0.220023
			 0.811225  0.300445  0.501645
			 0.814811  0.212503  0.539375
			 0.990332  0.134780 -0.032810
			 0.682943 -0.010465  0.730396
			 0.980665 -0.026796 -0.193849
			 0.574361 -0.181050  0.798330
			 0.704873  0.068747  0.705994
			 0.602124 -0.147017  0.784750
			 0.783538  0.071919  0.617167
			 0.708677  0.135500  0.692399
			 0.791347  0.184034  0.583010
			-0.933438 -0.105736 -0.342803
			-0.789287  0.297317 -0.537242
			-0.705652  0.358967 -0.610900
			-0.913433 -0.403350  0.054307
			-0.982875 -0.150771  0.105950
			-0.749772 -0.271464 -0.603448
			-0.771565 -0.022464 -0.635754
			 0.683334 -0.676415 -0.274804
			 0.769069 -0.583007 -0.261983
			 0.666200 -0.701547 -0.253001
			 0.701233 -0.680158 -0.213675
			 0.699138 -0.685142 -0.204419
			 0.898992 -0.321929 -0.296944
			 0.912568 -0.091244 -0.398616
			 0.955538 -0.015235 -0.294473
			 0.939645 -0.160009 -0.302432
			-0.577291 -0.530628 -0.620620
			-0.691886 -0.565723 -0.448610
			-0.783763 -0.210785 -0.584196
			-0.375742 -0.926584  0.016152
			-0.757599 -0.641535 -0.120317
			-0.427790 -0.903796  0.012184
			-0.610447 -0.787291 -0.086768
			-0.014991 -0.984320  0.175756
			 0.156237 -0.967640  0.198148
			-0.033368 -0.980652  0.192897
			-0.432498 -0.894387  0.114090
			-0.283923 -0.942912  0.174084
			-0.364754 -0.913713  0.179117
			 0.711823 -0.681738 -0.168942
			 0.577375 -0.815082  0.047741
			 0.266395 -0.946882  0.180135
			-0.996548 -0.028535  0.077960
			-0.996660 -0.078739  0.021649
			-0.995515 -0.013421  0.093649
			-0.988547 -0.109408 -0.103949
			-0.996714 -0.079024 -0.017808
			-0.993493 -0.086627  0.073948
			-0.984050 -0.015603  0.177204
			-0.970873 -0.236341  0.039337
			-0.997296 -0.007352 -0.073116
			-0.923381 -0.382568  0.031780
			-0.968123 -0.239445 -0.073509
			-0.920366 -0.152874 -0.359939
			-0.922204 -0.260396 -0.285891
			-0.978780  0.018112 -0.204111
			-0.949032 -0.019218 -0.314594
			-0.694194  0.388628  0.605857
			-0.374946  0.462734  0.803301
			-0.013220  0.577319  0.816412
			-0.348131  0.577035  0.738807
			 0.088441  0.488097  0.868297
			-0.889445  0.270271  0.368567
			-0.983265 -0.052631  0.174413
			-0.980304  0.050023  0.191054
			-0.965978  0.068155  0.249484
			 0.636703  0.375834  0.673319
			 0.395839  0.597618  0.697255
			 0.656163  0.428201  0.621365
			 0.614247  0.518700  0.594685
			 0.541209  0.587667  0.601448
			 0.199902  0.579191  0.790302
			 0.686080  0.271845  0.674829
			 0.534442 -0.200524  0.821074
			 0.935214 -0.126258 -0.330809
			 0.887799  0.066204  0.455444
			 0.834640  0.104657  0.540761
			 0.770505  0.067831  0.633815
			 0.748871  0.110108  0.653505
			 0.692969 -0.049887  0.719240
			 0.923877 -0.251619  0.288338
			 0.688959 -0.129461  0.713145
			 0.821692  0.072227  0.565337
			 0.864085  0.176609  0.471346
			 0.805011  0.268647  0.528948
			 0.868728  0.244894  0.430510
			-0.932018 -0.171501 -0.319264
			-0.761498  0.413482 -0.499153
			-0.815936  0.156501 -0.556558
			-0.817749  0.389452 -0.423808
			-0.921708 -0.344257  0.178722
			-0.909874 -0.392871  0.133347
			 0.707239 -0.675689 -0.207986
			 0.784751 -0.561539 -0.262375
			 0.717287 -0.686516 -0.119143
			 0.792812 -0.584476 -0.172734
			 0.949608 -0.218359 -0.224865
			 0.987338  0.004993 -0.158554
			 0.881824 -0.408121 -0.236270
			 0.931046 -0.283482 -0.229765
			 0.946322  0.147062 -0.287833
			 0.994101 -0.047529 -0.097487
			-0.916538  0.048602 -0.396985
			-0.969332 -0.144411 -0.198850
			-0.783391 -0.572189 -0.242689
			-0.932727 -0.359961 -0.021178
			-0.489481 -0.856952  0.161372
			-0.533500 -0.845463  0.023880
			-0.826389 -0.561972  0.035612
			 0.385869 -0.911178  0.144432
			 0.540642 -0.836174  0.092300
			-0.208226 -0.926833  0.312445
			 0.052425 -0.960281  0.274064
			-0.430718 -0.881428  0.193822
			-0.350029 -0.894640  0.277668
			-0.464481 -0.856592  0.224739
			 0.748933 -0.661084 -0.045468
			 0.744917 -0.666847 -0.020356
			 0.761522 -0.648114 -0.005692
			-0.998028 -0.049354  0.038783
			-0.995648 -0.026535  0.089335
			-0.997832 -0.030905  0.058098
			-0.996849 -0.059914  0.051977
			-0.999626 -0.013120  0.023977
			-0.969200 -0.134947 -0.206010
			-0.979411 -0.123702 -0.159539
			-0.957207 -0.138170 -0.254290
			-0.948965 -0.075519 -0.306207
			-0.983276 -0.087015 -0.159990
			-0.993983 -0.042368  0.101011
			-0.989910 -0.046656  0.133800
			-0.988810 -0.093027  0.116624
			-0.987742  0.016281  0.155244
			-0.995238 -0.090714  0.035673
			-0.928415 -0.328718  0.173178
			-0.962734 -0.185863 -0.196463
			-0.998729  0.035687 -0.035605
			-0.999104  0.028106 -0.031652
			-0.987881  0.087730  0.128039
			-0.967921 -0.189959 -0.164449
			-0.934242 -0.074680 -0.348732
			-0.980844 -0.064446 -0.183827
			-0.666680  0.500737  0.552087
			-0.018537  0.702898  0.711049
			 0.175125  0.692674  0.699667
			-0.154972  0.640486  0.752171
			-0.587600  0.603582  0.538902
			-0.323319  0.742094  0.587163
			-0.438242  0.707662  0.554219
			-0.792320  0.465585  0.394284
			-0.954993  0.162411  0.248216
			-0.922527  0.327991  0.203388
			 0.698987  0.312433  0.643275
			 0.324597  0.666248  0.671380
			 0.446759  0.670723  0.592062
			 0.617954  0.562893  0.548893
			 0.740326  0.343618  0.577792
			 0.697789  0.460385  0.548758
			 0.551646  0.624046  0.553401
			 0.894017 -0.092468  0.438387
			 0.924297 -0.008111  0.381587
			 0.987117 -0.129259  0.094298
			 0.987090 -0.131820  0.090981
			 0.802740 -0.090583  0.589409
			 0.779630 -0.361764  0.511179
			 0.767455 -0.359640  0.530728
			 0.908432  0.020831  0.417513
			 0.880650  0.162097  0.445175
			 0.895811  0.121881  0.427397
			 0.904328  0.214399  0.369085
			 0.808918  0.359242  0.465400
			 0.783188  0.425472  0.453419
			 0.920028  0.306231  0.244483
			 0.859157  0.321163  0.398376
			-0.957418  0.200896 -0.207345
			-0.901997  0.271012 -0.336086
			 0.767172 -0.635560 -0.086667
			 0.903883 -0.401366 -0.147991
			 0.793403 -0.586275 -0.163688
			 0.881417 -0.439105 -0.174041
			 0.964473 -0.234598 -0.121472
			 0.986774  0.074514  0.143959
			 0.988722 -0.135830 -0.063087
			 0.817772 -0.207925  0.536671
			-0.940762  0.308506 -0.140678
			-0.978200  0.207397  0.010530
			-0.985621 -0.155110  0.067018
			-0.584103 -0.802978  0.118532
			-0.619529 -0.773721  0.132435
			-0.538555 -0.825663  0.168043
			-0.827450 -0.561256 -0.017851
			-0.997246 -0.028288 -0.068565
			 0.708154 -0.705634  0.024467
			 0.628857 -0.767999  0.121309
			 0.409438 -0.882889  0.229930
			-0.251852 -0.919674  0.301281
			 0.249951 -0.935450  0.249915
			-0.416690 -0.870581  0.261644
			-0.411791 -0.873799  0.258656
			-0.482828 -0.841440  0.242601
			 0.808005 -0.587317  0.046762
			-0.994239 -0.015207 -0.106098
			-0.994615 -0.016065 -0.102382
			-0.981252 -0.068850 -0.180014
			-0.993006 -0.106872  0.050167
			-0.859555 -0.102128 -0.500734
			-0.867373 -0.178176 -0.464669
			-0.823012 -0.163719 -0.543919
			-0.624794 -0.253859 -0.738369
			-0.963743 -0.029767 -0.265168
			-0.905000 -0.021980 -0.424843
			-0.829102  0.001302 -0.559096
			-0.982210  0.151303  0.111225
			-0.999549  0.012575  0.027276
			-0.953963  0.293562 -0.061441
			-0.993382 -0.075402  0.086637
			-0.961088  0.268618 -0.064458
			-0.969035  0.226279 -0.098839
			-0.986515  0.134397 -0.093407
			-0.998940 -0.024384  0.039035
			-0.986813  0.043191  0.155996
			-0.999998  0.000471 -0.001813
			-0.988720 -0.038910 -0.144636
			-0.969595 -0.059853 -0.237281
			 0.049535  0.774962  0.630064
			-0.135110  0.748274  0.649485
			 0.241637  0.781401  0.575347
			-0.677394  0.592283  0.436277
			-0.589040  0.693430  0.414954
			-0.245382  0.789282  0.562870
			-0.258763  0.879449  0.399513
			-0.471996  0.804429  0.360712
			-0.425678  0.815755  0.391588
			-0.743028  0.579641  0.334553
			-0.789514  0.609474  0.072170
			-0.903539  0.426750  0.038756
			-0.739213  0.673466 -0.002987
			 0.497436  0.711347  0.496531
			 0.377529  0.778904  0.500780
			 0.591685  0.650884  0.475668
			 0.714651  0.538290  0.446675
			 0.722484  0.593941  0.353907
			 0.924186 -0.352798 -0.146337
			 0.977467 -0.177414  0.114384
			 0.975426 -0.210276  0.065792
			 0.901496 -0.313220 -0.298660
			 0.880658 -0.423486 -0.212368
			 0.851144 -0.401838  0.337759
			 0.945556  0.096635  0.310783
			 0.969839  0.104605  0.220159
			 0.933472  0.161025  0.320471
			 0.941707  0.201506  0.269413
			 0.823622  0.436960  0.361544
			 0.752966  0.523634  0.398560
			 0.972784  0.229859 -0.029253
			 0.938603  0.343033 -0.036783
			 0.967597  0.205822  0.146266
			 0.837474  0.476679  0.267234
			 0.904209  0.398520  0.153580
			 0.741617 -0.667322 -0.068449
			 0.729806 -0.675486 -0.105365
			 0.751093 -0.651680 -0.105702
			 0.914407 -0.265193 -0.305832
			 0.815054 -0.564419 -0.130833
			 0.872426 -0.407375 -0.270035
			 0.981544 -0.189650 -0.024598
			 0.931471 -0.111198 -0.346405
			-0.818111 -0.571895 -0.060255
			-0.785762 -0.618096  0.023145
			-0.725394 -0.686825 -0.045537
			-0.912417 -0.401237 -0.080646
			-0.974115 -0.118753 -0.192347
			-0.957717  0.219745 -0.185713
			 0.615191 -0.759969  0.209731
			-0.082244 -0.969533  0.230744
			-0.314744 -0.913372  0.258240
			 0.317010 -0.919148  0.233821
			-0.559604 -0.818973  0.126989
			-0.549322 -0.833669  0.056934
			-0.335387 -0.942075 -0.003176
			 0.733255 -0.679295  0.029924
			 0.696133 -0.682056  0.224048
			 0.870677 -0.480593  0.104654
			 0.793266 -0.606023  0.058869
			 0.826156 -0.554987  0.097241
			-0.866842 -0.020770 -0.498150
			-0.689107 -0.140058 -0.710996
			-0.921480  0.013421 -0.388193
			-0.986784 -0.018130 -0.161023
			-0.900061  0.089232 -0.426530
			-0.993392  0.005797 -0.114625
			-0.637230  0.088568 -0.765568
			-0.534754 -0.169211 -0.827892
			-0.396180 -0.255027 -0.882044
			-0.375442 -0.225552 -0.898982
			-0.814498  0.170889 -0.554427
			-0.907865  0.020720 -0.418750
			-0.969324  0.234112 -0.074847
			-0.924638  0.204105 -0.321537
			-0.975333  0.079956 -0.205747
			-0.988558  0.110955 -0.102184
			-0.993903 -0.107382  0.025007
			-0.984194 -0.018179 -0.176156
			-0.955637 -0.024986 -0.293486
			-0.967663  0.146140 -0.205602
			-0.916944 -0.088886 -0.388990
			-0.067249  0.837225  0.542707
			 0.036582  0.896112  0.442318
			 0.272482  0.862112  0.427221
			-0.649938  0.742641  0.161446
			-0.186650  0.969919  0.156267
			-0.449076  0.880977  0.149032
			-0.109982  0.941171  0.319532
			-0.594070  0.803284  0.042610
			-0.818565  0.550814 -0.162955
			-0.578445  0.809600 -0.099743
			-0.637224  0.746820 -0.190278
			 0.408093  0.817322  0.406749
			 0.525764  0.748845  0.403489
			 0.303731  0.875973  0.374726
			 0.608855  0.689258  0.392708
			 0.785953  0.527466  0.322579
			 0.665232  0.668672  0.332181
			 0.815090  0.554785  0.166860
			 0.686965  0.679547  0.257479
			 0.747603  0.630926  0.207417
			 0.800907 -0.372210 -0.469049
			 0.906117 -0.362880 -0.217416
			 0.997080  0.004628  0.076220
			 0.939158 -0.342905  0.019990
			 0.797830 -0.568926 -0.199476
			 0.792724 -0.456310 -0.404191
			 0.749524 -0.566218 -0.342944
			 0.967579 -0.252473  0.006957
			 0.987923  0.150403  0.037239
			 0.951180  0.244773 -0.187998
			 0.980417  0.196551 -0.012295
			 0.957204  0.192363 -0.216235
			 0.885971  0.452425  0.101819
			 0.921184  0.308144 -0.237626
			 0.908964  0.408710 -0.082102
			 0.853887 -0.489179 -0.177709
			 0.902192 -0.144838 -0.406289
			 0.885894 -0.242666 -0.395354
			 0.870292 -0.266456 -0.414239
			 0.912030 -0.184604 -0.366227
			-0.666696 -0.741874 -0.071683
			-0.804039 -0.537402 -0.254402
			-0.969209 -0.128010 -0.210350
			-0.897655 -0.249540 -0.363243
			-0.899466 -0.296410 -0.321093
			-0.972618  0.010555 -0.232171
			-0.023314 -0.969653  0.243371
			 0.529460 -0.831283  0.169236
			-0.681019 -0.663054 -0.310761
			-0.577582 -0.740418 -0.343774
			 0.142997 -0.989714 -0.004313
			-0.252527 -0.862467 -0.438612
			-0.414680 -0.577019 -0.703626
			 0.803410 -0.585145  0.110172
			 0.855494 -0.492922  0.158610
			 0.916406 -0.391394  0.083731
			 0.882692 -0.469420 -0.022349
			 0.969668 -0.208330 -0.127840
			-0.523695 -0.150503 -0.838506
			-0.603325 -0.120971 -0.788267
			-0.735668 -0.001510 -0.677340
			-0.435454 -0.292686 -0.851302
			-0.777292  0.105167 -0.620287
			-0.738553  0.322660 -0.591971
			-0.701231  0.220165 -0.678087
			-0.642409  0.089367 -0.761134
			-0.535101 -0.170469 -0.827410
			-0.824765  0.256505 -0.503952
			-0.660074  0.369069 -0.654286
			-0.753309  0.289098 -0.590718
			-0.880126 -0.048154 -0.472291
			-0.858809  0.036296 -0.511009
			-0.839124  0.077817 -0.538345
			-0.845894  0.437949 -0.304409
			-0.703400  0.550830 -0.449238
			-0.995450 -0.049698 -0.081293
			-0.939607  0.034187 -0.340545
			-0.922609  0.228860 -0.310510
			-0.972134 -0.137124 -0.190136
			-0.895468  0.070220 -0.439552