<?xml version="1.0"?>
<VTKFile type="PolyData" version="0.1" byte_order="LittleEndian" compressor="vtkZLibDataCompressor">
	<PolyData>
		<Piece NumberOfPoints="1066" NumberOfVerts="0" NumberOfLines="0" NumberOfStrips="0" NumberOfPolys="2138">
		<PointData Normals="Normals">
		<DataArray type="Float32" Name="Normals" NumberOfComponents="3" format="ascii">
			-0.333248  0.101916  0.937315
			-0.235658  0.092061  0.967466
			-0.211520  0.263517  0.941179
			-0.256326  0.185552  0.948613
			-0.291354  0.059995  0.954732
			-0.291312  0.187349  0.938103
			-0.466755  0.051164  0.882906
			-0.351972  0.066442  0.933650
			-0.362874  0.156967  0.918523
			-0.397747  0.094547  0.912611
			-0.379590  0.081974  0.921516
			-0.292377  0.092251  0.951843
			-0.303267  0.088975  0.948743
			-0.263715 -0.087250  0.960647
			-0.250562  0.029355  0.967656
			-0.306064  0.179140  0.935005
			-0.323342  0.073750  0.943404
			-0.319930  0.386571  0.864990
			-0.499482 -0.021478  0.866058
			-0.477758  0.126692  0.869308
			-0.537244  0.036217  0.842649
			-0.345591  0.070419  0.935739
			-0.403243  0.363406  0.839840
			-0.281560  0.115644  0.952549
			-0.294903  0.170528  0.940187
			-0.378522  0.069889  0.922950
			-0.416929  0.000718  0.908939
			-0.403023 -0.009302  0.915142
			-0.331254 -0.008717  0.943501
			-0.146821 -0.133841  0.980066
			-0.109137 -0.246530  0.962971
			-0.255715 -0.293018  0.921276
			-0.222006 -0.006216  0.975025
			-0.267937  0.226804  0.936360
			-0.344484  0.367961  0.863675
			-0.246362  0.195559  0.949243
			-0.426059  0.510749  0.746732
			-0.327216  0.508340  0.796568
			-0.382128  0.352329  0.854308
			-0.560593  0.015309  0.827950
			-0.568128 -0.154009  0.808401
			-0.537886 -0.130062  0.832924
			-0.510837  0.014913  0.859548
			-0.517000  0.135324  0.845221
			-0.526399  0.421849  0.738206
			-0.584390  0.041279  0.810423
			-0.238942 -0.110542  0.964721
			-0.400776 -0.082827  0.912424
			-0.454605  0.554647  0.696923
			-0.468939  0.515879  0.716913
			-0.197143  0.188974  0.961989
			-0.180562  0.301645  0.936166
			-0.216617  0.164923  0.962225
			-0.252655 -0.303921  0.918585
			-0.276937  0.021070  0.960657
			-0.211925 -0.232135  0.949316
			-0.133337 -0.174103  0.975658
			-0.051189 -0.215378  0.975188
			-0.119351 -0.360636  0.925039
			 0.007312 -0.268323  0.963301
			-0.263696  0.217855  0.939682
			-0.414241  0.336394  0.845720
			-0.399018  0.237411  0.885675
			-0.277684  0.236498  0.931107
			-0.489088  0.435663  0.755639
			-0.445925  0.395142  0.803127
			-0.577039  0.366338  0.729947
			-0.605070 -0.089775  0.791095
			-0.591999 -0.093830  0.800458
			-0.589583 -0.193071  0.784293
			-0.566993 -0.195687  0.800141
			-0.565577 -0.103955  0.818118
			-0.533007 -0.111131  0.838781
			-0.646092  0.381263  0.661214
			-0.555892  0.526720  0.643079
			-0.651034  0.536804  0.536653
			-0.655651  0.171695  0.735284
			-0.104322 -0.179106  0.978283
			-0.199122 -0.207698  0.957712
			-0.505386 -0.249798  0.825946
			-0.329982 -0.159108  0.930482
			-0.567429  0.396441  0.721706
			-0.497423  0.438024  0.748803
			-0.179708  0.126195  0.975592
			-0.005211  0.200375  0.979705
			-0.130001  0.403981  0.905483
			-0.238514  0.427986  0.871745
			-0.196468  0.290465  0.936499
			-0.109322  0.124925  0.986125
			 0.100597  0.154891  0.982796
			-0.157849 -0.516543  0.841586
			-0.055546 -0.075144  0.995624
			 0.042376 -0.288150  0.956647
			-0.136672 -0.563084  0.815020
			 0.000961 -0.215678  0.976464
			 0.020774 -0.396039  0.917999
			 0.061314 -0.241862  0.968372
			 0.105131 -0.403240  0.909035
			-0.156315  0.097617  0.982872
			-0.260047  0.288411  0.921518
			-0.372722  0.333438  0.865966
			-0.483706  0.410951  0.772753
			-0.363872  0.240612  0.899835
			-0.273781  0.279344  0.920332
			-0.517993  0.785540  0.338541
			-0.471665  0.590284  0.655055
			-0.464736  0.818536  0.337667
			-0.682338 -0.069900  0.727688
			-0.646634 -0.054584  0.760845
			-0.670677 -0.043051  0.740500
			-0.803431 -0.295015  0.517170
			-0.762789 -0.233918  0.602857
			-0.591554 -0.303730  0.746869
			-0.654234 -0.454248  0.604680
			-0.712707 -0.329540  0.619235
			-0.687980  0.492820  0.532741
			-0.672437  0.505776  0.540388
			-0.584307  0.427609  0.689736
			-0.582813  0.475507  0.658955
			-0.722999  0.594051  0.352670
			-0.780313  0.571205  0.254630
			-0.712309  0.566486  0.414378
			-0.814960  0.232085  0.531015
			-0.151729 -0.140557  0.978377
			-0.070902 -0.260589  0.962843
			-0.172260 -0.236897  0.956141
			-0.364095 -0.191102  0.911545
			-0.531427 -0.209676  0.820745
			-0.532442  0.803699  0.265656
			-0.161024  0.101712  0.981696
			-0.331044  0.323035  0.886599
			-0.298798  0.213710  0.930079
			 0.215948 -0.049018  0.975174
			 0.151209  0.185578  0.970926
			 0.043687  0.066380  0.996838
			 0.473836  0.008327  0.880574
			 0.474861  0.201099  0.856777
			 0.367266  0.043542  0.929096
			-0.033630 -0.527292  0.849018
			-0.099474 -0.621595  0.776997
			 0.231031 -0.208280  0.950391
			 0.123844 -0.471256  0.873259
			 0.048726 -0.478802  0.876570
			 0.107435 -0.488918  0.865689
			 0.056056 -0.545439  0.836274
			 0.233529 -0.407356  0.882907
			 0.113903 -0.811624  0.572968
			 0.202856 -0.737514  0.644145
			 0.125247 -0.831154  0.541753
			-0.310530 -0.001242  0.950563
			-0.186461  0.280898  0.941450
			-0.317855  0.371892  0.872161
			-0.442272  0.453095  0.774015
			-0.445072  0.177895  0.877647
			-0.398139  0.592776  0.700072
			-0.471169  0.816405  0.333891
			-0.346501  0.597237  0.723357
			-0.408789  0.889659 -0.203465
			-0.449320  0.887652 -0.100922
			-0.425263  0.866564 -0.261186
			-0.445695  0.894380 -0.037941
			-0.958742 -0.070553  0.275385
			-0.948833 -0.314932  0.023092
			-0.896232 -0.428592  0.114354
			-0.890566 -0.371321  0.262705
			-0.747730 -0.341114  0.569685
			-0.585193 -0.293434  0.755941
			-0.734235 -0.510299  0.447766
			-0.698127 -0.462611  0.546452
			-0.801361  0.520710  0.294416
			-0.735348  0.560690  0.380643
			-0.575102  0.804022  0.151018
			-0.722537  0.684326  0.098181
			-0.793455  0.608407  0.016439
			-0.862702  0.486642  0.137568
			-0.820645  0.542213  0.180407
			-0.557379  0.818430 -0.139647
			-0.390985  0.920394  0.002515
			-0.966946  0.249687  0.051689
			-0.012292 -0.710540  0.703549
			-0.109225 -0.613890  0.781798
			-0.223417 -0.410436  0.884097
			-0.469891 -0.209213  0.857573
			-0.614390 -0.082364  0.784692
			-0.702382 -0.292496  0.648927
			-0.383972  0.869383 -0.311028
			-0.514586  0.851402 -0.101568
			-0.323169 -0.024238  0.946031
			-0.084166 -0.058436  0.994737
			 0.493354 -0.190670  0.848674
			 0.340903 -0.073693  0.937206
			 0.661552  0.000643  0.749899
			 0.754168 -0.233554  0.613745
			 0.798057  0.202611  0.567498
			 0.816893  0.237572  0.525591
			 0.000640 -0.513382  0.858160
			 0.392389 -0.299257  0.869756
			 0.559605 -0.314853  0.766622
			 0.312343 -0.448565  0.837395
			 0.092686 -0.649427  0.754754
			 0.254759 -0.647370  0.718338
			 0.060383 -0.885486  0.460726
			 0.029505 -0.824957  0.564424
			 0.386677 -0.699159  0.601380
			 0.173746 -0.960525  0.217264
			 0.127900 -0.985916  0.107753
			-0.170339 -0.141595  0.975159
			-0.232365  0.329098  0.915260
			-0.264684  0.421911  0.867141
			-0.165684  0.261027  0.951007
			-0.490669  0.349095  0.798359
			-0.412011  0.394055  0.821564
			-0.275182  0.474456  0.836161
			-0.314319  0.508553  0.801610
			-0.251069  0.562151  0.788005
			-0.328312  0.102394  0.939003
			-0.434975  0.882092  0.180863
			-0.412429  0.757031  0.506761
			-0.569619  0.820581  0.046701
			-0.627175  0.765635 -0.143021
			-0.328452  0.845442 -0.421126
			-0.566878  0.774803 -0.279874
			-0.507028  0.795716 -0.331300
			-0.985381 -0.170311 -0.004195
			-0.936586 -0.349911  0.019206
			-0.957488 -0.277465 -0.078936
			-0.861357 -0.454372  0.227180
			-0.801966 -0.586750  0.112137
			-0.841557 -0.531782 -0.094813
			-0.641417 -0.718634 -0.268607
			-0.823184 -0.445237  0.352324
			-0.671207 -0.639876  0.374219
			-0.755305 -0.638678  0.146982
			-0.702526 -0.680396  0.208610
			-0.852480  0.508712 -0.120376
			-0.269915  0.875311 -0.401219
			-0.857433  0.512011  0.051502
			-0.788070  0.615586 -0.000676
			-0.830900  0.552239  0.068100
			-0.419931  0.828453 -0.370573
			-0.251032  0.842887 -0.475946
			-0.904903  0.415562 -0.091967
			-0.998839  0.024976 -0.041181
			 0.014830 -0.948755  0.315665
			 0.009239 -0.928482  0.371263
			-0.064832 -0.821836  0.566023
			-0.270465 -0.624857  0.732395
			-0.605341 -0.427151  0.671643
			-0.703222 -0.701925  0.113051
			 0.223883 -0.231673  0.946681
			 0.641630 -0.252796  0.724158
			 0.628061 -0.230049  0.743382
			 0.860573 -0.046896  0.507164
			 0.809460 -0.222805  0.543261
			 0.930042  0.018687  0.366977
			 0.965848 -0.249580  0.069617
			 0.987025  0.103764  0.122534
			 0.890408  0.350938  0.289854
			 0.845561  0.284231  0.451928
			 0.399271 -0.456526  0.795089
			 0.681294 -0.371949  0.630471
			 0.743357 -0.254391  0.618632
			 0.457750 -0.524548  0.717854
			 0.463207 -0.513788  0.722122
			 0.452552 -0.765545  0.457315
			 0.564127 -0.609044  0.557518
			 0.055067 -0.998470  0.004950
			 0.450772 -0.823437  0.344611
			 0.338122 -0.924653  0.175187
			 0.156969 -0.983975  0.084582
			-0.005869 -0.015680  0.999860
			 0.354114 -0.336618  0.872520
			-0.288405  0.588962  0.754947
			-0.112349  0.333398  0.936068
			-0.513138  0.677125  0.527439
			-0.248204  0.554785  0.794109
			-0.398398  0.474339  0.785036
			-0.190258  0.582529  0.790229
			 0.085610  0.494391  0.865014
			-0.078762  0.557112  0.826694
			-0.119992  0.571260  0.811951
			-0.476960  0.865536  0.152828
			-0.457052  0.812339  0.362228
			-0.584941  0.773681  0.243437
			-0.656305  0.753324  0.042026
			-0.686265  0.727285 -0.009875
			-0.725931  0.673177  0.140918
			-0.735994  0.602893 -0.307951
			-0.627325  0.731889 -0.266087
			-0.806536  0.546721 -0.224936
			-0.715290  0.684552 -0.140531
			-0.351576  0.797687 -0.489989
			-0.595309  0.681647 -0.425400
			-0.943039 -0.321804 -0.084377
			-0.973744 -0.145467 -0.175103
			-0.876166 -0.438619 -0.199864
			-0.686559 -0.674423 -0.271644
			-0.476270 -0.818836 -0.320430
			-0.389369 -0.809445 -0.439534
			-0.590083 -0.784142 -0.192157
			-0.491438 -0.848064 -0.198182
			-0.443427 -0.844136 -0.301343
			-0.900397  0.427501 -0.080794
			-0.198795  0.783926 -0.588168
			-0.935094  0.350719  0.050944
			-0.468871  0.813966 -0.342956
			-0.693295  0.654606 -0.301387
			-0.119981  0.812336 -0.570714
			-0.142870  0.827225 -0.543403
			 0.000000  0.000000  1.000000
			-0.942780  0.302489 -0.140237
			 0.051278 -0.998579 -0.014530
			 0.055978 -0.976778  0.206811
			-0.019727 -0.962582  0.270272
			-0.241758 -0.840514  0.484859
			-0.469069 -0.845448  0.255326
			-0.406284 -0.871392 -0.274970
			-0.298499 -0.819602 -0.489030
			 0.525732 -0.300824  0.795683
			 0.838296 -0.395651  0.375127
			 0.901814 -0.103463  0.419557
			 0.854226 -0.226049  0.468187
			 0.909001  0.152098  0.388051
			 0.842618 -0.515948  0.154249
			 0.916789 -0.112351  0.383243
			 0.746490  0.161482  0.645505
			 0.792527 -0.038887  0.608595
			 0.650390  0.052644  0.757774
			 0.684501  0.152758  0.712828
			 0.711281 -0.405551  0.574114
			 0.802292 -0.356784  0.478573
			 0.517628 -0.803104  0.295102
			 0.772598 -0.381616  0.507408
			-0.015924 -0.994135 -0.106966
			 0.066278 -0.995878 -0.061918
			 0.023950 -0.999543  0.018435
			-0.029021 -0.990927  0.131232
			 0.139035 -0.968773  0.205302
			 0.248918 -0.936235  0.247998
			 0.231613 -0.027780  0.972411
			 0.434228 -0.062804  0.898611
			 0.540994 -0.380562  0.749999
			 0.672415 -0.597503  0.436862
			-0.455010  0.794980  0.401215
			 0.168122  0.228232  0.958981
			-0.626109  0.657172  0.419657
			-0.641241  0.593801  0.486015
			-0.193198  0.426860  0.883439
			-0.404138  0.599645  0.690723
			-0.231460  0.363536  0.902368
			 0.444764  0.178693  0.877641
			-0.007963  0.494917  0.868904
			 0.353902  0.326396  0.876481
			-0.776516  0.587355  0.228118
			-0.657884  0.650795  0.379018
			-0.737786  0.669812  0.083807
			-0.813503  0.572895 -0.100025
			-0.788411  0.615147  0.001480
			-0.798501  0.587750  0.130180
			-0.800755  0.595619  0.063477
			-0.821643  0.409468 -0.396533
			-0.694877  0.567938 -0.441126
			-0.756730  0.527657 -0.385924
			-0.841671  0.476820 -0.253443
			-0.388632  0.719137 -0.576027
			-0.562584  0.627191 -0.538638
			-0.899521  0.182038 -0.397146
			-0.985127  0.019990 -0.170660
			-0.941892  0.149341 -0.300893
			-0.910386 -0.373855 -0.177285
			-0.550337 -0.695930 -0.461314
			-0.634019 -0.653491 -0.413484
			-0.240438 -0.871471 -0.427468
			-0.323637 -0.900627 -0.290050
			-0.406961 -0.870036 -0.278243
			-0.514520 -0.806898 -0.290148
			-0.597483 -0.712764 -0.367398
			-0.231169 -0.828260 -0.510438
			 0.804011 -0.507288  0.310203
			-0.950892  0.195631 -0.239862
			-0.096531  0.784496 -0.612575
			-0.198473  0.778997 -0.594788
			-0.850758  0.421767 -0.313566
			-0.253989  0.790240 -0.557683
			-0.372197  0.748858 -0.548344
			 0.114823  0.038204 -0.992651
			 0.088437 -0.996059  0.006718
			 0.043006 -0.981945 -0.184212
			-0.073487 -0.961574 -0.264527
			 0.032551 -0.999170 -0.024486
			-0.090270 -0.973153  0.211720
			-0.193985 -0.967858 -0.160064
			-0.114941 -0.913156 -0.391069
			-0.175904 -0.809176 -0.560618
			-0.108044 -0.893497 -0.435878
			 0.866023 -0.160285  0.473617
			 0.742654 -0.255564  0.618993
			 0.749521 -0.209624  0.627915
			 0.505867 -0.706700  0.494645
			 0.557659 -0.559308  0.613345
			 0.766936 -0.036292  0.640697
			 0.598536 -0.277941  0.751335
			 0.658310 -0.034760  0.751944
			 0.730638 -0.166288  0.662205
			 0.752533 -0.101826  0.650634
			 0.682831 -0.166075  0.711450
			 0.690610 -0.166908  0.703704
			 0.667083 -0.075725  0.741125
			 0.571475 -0.162609  0.804347
			 0.510243 -0.731352  0.452523
			 0.636487 -0.272837  0.721418
			-0.060324 -0.998179  0.000578
			-0.156170 -0.978235 -0.136631
			-0.128038 -0.991693  0.012296
			-0.116454 -0.968727  0.219106
			 0.302328 -0.905774  0.296936
			 0.199052 -0.916004  0.348303
			-0.007261 -0.962543  0.271031
			 0.645976 -0.172909  0.743517
			 0.676192 -0.432221  0.596614
			 0.567490 -0.639414  0.518753
			-0.178774  0.359700  0.915782
			-0.146486  0.400087  0.904694
			-0.504369  0.770821  0.389161
			-0.364173  0.789706  0.493702
			-0.196509  0.581701  0.789309
			 0.679820 -0.119950  0.723503
			 0.042931  0.344762  0.937708
			 0.367264  0.329473  0.869807
			 0.702691  0.094950  0.705131
			-0.720932  0.625463  0.298419
			-0.736986  0.646428  0.197441
			-0.438663  0.795301  0.418416
			-0.812879  0.579990 -0.053288
			-0.834142  0.526408 -0.164624
			-0.786406  0.615559  0.051497
			-0.750883  0.462019 -0.471925
			-0.770833  0.367383 -0.520430
			-0.748306  0.309646 -0.586649
			-0.770482  0.314025 -0.554748
			-0.775202  0.395236 -0.492798
			-0.597971  0.594514 -0.537572
			-0.846268  0.469791 -0.251250
			-0.396816  0.708446 -0.583645
			-0.478631  0.661102 -0.577803
			-0.966511  0.095694 -0.238114
			-0.882157 -0.350649 -0.314396
			-0.980508  0.112615 -0.161003
			-0.245239 -0.882953 -0.400313
			-0.301695 -0.915223 -0.267109
			-0.427395 -0.887015 -0.174749
			-0.384570 -0.915431 -0.118707
			-0.561958 -0.826332 -0.037139
			-0.613140 -0.745746 -0.260618
			-0.563107 -0.735737 -0.376300
			-0.705244 -0.593581 -0.387676
			-0.843628 -0.368351 -0.390653
			-0.713373 -0.562903 -0.417420
			-0.300139 -0.859789 -0.413133
			-0.216170 -0.821337 -0.527899
			 0.152653  0.681974  0.715268
			-0.920639 -0.306781 -0.241474
			-0.951705  0.183197 -0.246368
			-0.264278  0.732295 -0.627616
			-0.158140  0.832263 -0.531347
			-0.282054  0.777209 -0.562487
			-0.820484  0.502005 -0.273491
			-0.792999  0.350463 -0.498325
			-0.193474 -0.867430 -0.458403
			-0.262386 -0.907835 -0.327091
			-0.237086 -0.832201 -0.501231
			 0.649531 -0.218945  0.728130
			 0.640837 -0.544027  0.541630
			 0.392380 -0.595116  0.701338
			 0.421175 -0.526231  0.738710
			 0.405149 -0.435499  0.803863
			 0.713094 -0.048872  0.699363
			 0.752610 -0.222267  0.619819
			 0.818693  0.034870  0.573172
			 0.936224  0.032738  0.349875
			 0.880811 -0.154438  0.447572
			 0.689229 -0.301618  0.658779
			 0.713866 -0.172357  0.678741
			 0.879988 -0.013304  0.474810
			 0.709673 -0.260584  0.654569
			 0.464155 -0.469313  0.751203
			 0.482078 -0.801677  0.353433
			 0.643483 -0.473157  0.601707
			-0.267282 -0.962362 -0.049196
			-0.202888 -0.941451  0.269270
			-0.102789 -0.892416  0.439349
			 0.604781 -0.664635  0.438749
			 0.523391 -0.757855  0.389510
			 0.425745 -0.810683  0.401913
			 0.075181 -0.910587  0.406422
			 0.235399 -0.915099  0.327385
			 0.711544 -0.518670  0.474012
			 0.865943 -0.259563  0.427516
			-0.120475  0.330080  0.936233
			-0.324856  0.323409  0.888749
			-0.106418  0.884294  0.454641
			 0.127935  0.697575  0.704998
			 0.221305  0.855172  0.468726
			 0.879290 -0.164476  0.446987
			 0.346446  0.289201  0.892378
			 0.297075  0.371052  0.879811
			 0.724205  0.291936  0.624740
			 0.819444  0.188845  0.541155
			 0.944130 -0.001639  0.329568
			-0.511808  0.803064  0.305191
			-0.681312  0.707003  0.189632
			-0.110086  0.928796  0.353863
			 0.129900  0.908598  0.396957
			 0.066431  0.881143  0.468161
			-0.786810  0.589765 -0.181952
			-0.819378  0.530836 -0.216410
			-0.769741  0.637493 -0.033196
			-0.708978  0.705112 -0.012949
			-0.646961  0.521849 -0.555980
			-0.598118  0.400579 -0.694112
			-0.481749  0.222305 -0.847643
			-0.550545  0.179066 -0.815375
			-0.735531  0.320875 -0.596686
			-0.830996  0.461156 -0.311097
			-0.759093  0.519162 -0.392744
			-0.477425  0.659448 -0.580684
			-0.327792  0.807075 -0.491104
			-0.952740 -0.048010 -0.299970
			-0.919816  0.148133 -0.363311
			-0.972970  0.151614 -0.174192
			-0.397298 -0.898230 -0.187984
			-0.373543 -0.923089 -0.091497
			-0.523416 -0.845724  0.103858
			-0.737457 -0.640973 -0.212862
			-0.691099 -0.701390  0.174456
			-0.791401 -0.607100 -0.071511
			-0.542469 -0.820147  0.181897
			-0.890731 -0.160171 -0.425374
			-0.895971 -0.070580 -0.438468
			-0.432441 -0.892744 -0.126505
			-0.276504  0.751047 -0.599562
			-0.659632  0.452935 -0.599780
			-0.341512  0.778329 -0.526853
			-0.317448  0.774667 -0.546917
			 0.913417 -0.259170  0.313846
			 0.887185 -0.134578  0.441352
			 0.660137 -0.396915  0.637713
			 0.646699 -0.378184  0.662387
			 0.708158 -0.344637  0.616228
			 0.887364 -0.321033  0.330944
			 0.816059 -0.361278  0.451140
			 0.927458  0.147707  0.343517
			 0.998091 -0.025991 -0.056029
			 0.995143 -0.071384  0.067792
			 0.989464  0.082326  0.119091
			 0.948839  0.217633  0.228781
			 0.935348 -0.189173  0.298894
			 0.986446 -0.149468  0.067701
			 0.944664 -0.027072  0.326920
			 0.960826  0.015399  0.276726
			 0.937533  0.083148  0.337815
			-0.421438 -0.898260  0.124576
			-0.332990 -0.914051  0.231577
			-0.207171 -0.848397  0.487138
			-0.013439 -0.882967  0.469242
			-0.065273 -0.864999  0.497511
			-0.052741 -0.864289  0.500224
			 0.669717 -0.530462  0.519701
			 0.758357 -0.553054  0.345001
			 0.616098 -0.709785  0.341508
			 0.433932 -0.830987  0.348086
			 0.153954 -0.923818  0.350513
			 0.318700 -0.852105  0.415148
			 0.975954 -0.109476  0.188488
			 0.970931 -0.060780  0.231514
			 0.495726  0.715353  0.492468
			 0.522236  0.786940  0.328626
			 0.591173  0.197924  0.781882
			 0.907368  0.162035  0.387849
			 0.760302  0.477474  0.440408
			-0.460353  0.887612  0.014826
			-0.182584  0.962820  0.199101
			-0.615812  0.778647 -0.120354
			 0.401946  0.869999  0.285554
			 0.208972  0.964763  0.159886
			 0.418745  0.801618  0.426686
			 0.570646  0.754454  0.324288
			-0.711921  0.664847 -0.226157
			-0.674187  0.629076 -0.386957
			-0.659662  0.749546 -0.055022
			-0.575043  0.634332 -0.516671
			-0.677797  0.593423 -0.434099
			-0.543229  0.578818 -0.608171
			-0.335682  0.396546 -0.854441
			-0.289983  0.201774 -0.935520
			-0.200090  0.350376 -0.914987
			-0.354041  0.113972 -0.928259
			-0.495705  0.080623 -0.864741
			-0.353604  0.026656 -0.935015
			-0.571104  0.310963 -0.759699
			-0.814621  0.462298 -0.350247
			-0.412473  0.097143 -0.905776
			-0.511806  0.123991 -0.850106
			-0.752226  0.511627 -0.415204
			-0.523322  0.701625 -0.483588
			-0.499366  0.791819 -0.351648
			-0.295264  0.881067 -0.369513
			-0.264021  0.861143 -0.434426
			-0.528289 -0.835642  0.150380
			-0.567558 -0.790355  0.230686
			-0.593986 -0.754947  0.277912
			-0.577657 -0.769838  0.271407
			-0.816941 -0.533413 -0.219268
			-0.873001 -0.108564 -0.475482
			-0.847044 -0.520329 -0.108506
			-0.770938 -0.631856  0.080079
			-0.776817 -0.589152  0.222385
			-0.599606 -0.746297  0.288986
			-0.631040 -0.697260  0.340025
			-0.684031 -0.656937  0.317073
			-0.930505 -0.219997 -0.292851
			-0.672217  0.433111 -0.600449
			-0.680809  0.475633 -0.557020
			-0.523384  0.651053 -0.549727
			 0.961676 -0.019255  0.273511
			 0.881963 -0.431304  0.190046
			 0.965972  0.105280  0.236249
			 0.919809 -0.202389 -0.336141
			 0.914888  0.001418 -0.403704
			 0.986590  0.074861 -0.145037
			 0.999321  0.034843 -0.011993
			 0.995373  0.075407  0.059554
			 0.958217  0.188370 -0.215261
			 0.987694 -0.091777 -0.126637
			 0.969131 -0.004034  0.246513
			 0.986794  0.061563  0.149827
			 0.970506  0.078556  0.227918
			-0.500547 -0.813464  0.296192
			-0.418983 -0.777456  0.469057
			-0.125908 -0.794259  0.594390
			 0.273949 -0.960455  0.049786
			 0.184771 -0.964399 -0.189194
			 0.035871 -0.941974  0.333765
			 0.006346 -0.908524  0.417783
			 0.723117 -0.654823  0.219790
			 0.832732 -0.553401  0.017482
			 0.699458 -0.700642  0.140925
			 0.554461 -0.831683 -0.029599
			 0.267759 -0.944136 -0.192128
			 0.988211  0.002945  0.153068
			 0.986910  0.028349  0.158764
			 0.687495  0.719159  0.100802
			 0.749560  0.582558  0.314302
			 0.868264  0.472995  0.149643
			 0.873655  0.407201  0.266298
			 0.991077  0.067458  0.114960
			 0.976186  0.179854  0.121297
			 0.000000  0.000000  1.000000
			-0.247390  0.966032  0.074697
			-0.388468  0.921442 -0.006175
			 0.677150  0.732985  0.064809
			 0.780865  0.612656  0.122074
			 0.602961  0.792865  0.088330
			 0.168008  0.979656  0.109760
			 0.866436  0.469773  0.169122
			-0.623710  0.726871 -0.287479
			-0.635791  0.514527 -0.575354
			-0.530419  0.643163 -0.552266
			-0.599985  0.575601 -0.555609
			-0.436031  0.721959 -0.537264
			-0.498889  0.851586 -0.160969
			-0.488221  0.696193 -0.526266
			-0.279632  0.619799 -0.733250
			-0.174985  0.620503 -0.764432
			-0.077879  0.520060 -0.850572
			-0.150830  0.306951 -0.939697
			-0.301654  0.065681 -0.951153
			-0.309527  0.008718 -0.950851
			-0.340764  0.000639 -0.940149
			-0.321282 -0.001609 -0.946982
			-0.587794  0.389379 -0.709142
			-0.172862  0.005466 -0.984931
			-0.324161  0.889023 -0.323355
			-0.441940  0.802558 -0.400735
			-0.274274  0.832323 -0.481676
			-0.313775  0.888202 -0.335622
			-0.587092 -0.745120  0.316415
			-0.589701 -0.728660  0.348293
			-0.576381 -0.704962  0.413296
			-0.629466 -0.686280  0.364406
			-0.721766  0.523438 -0.452843
			-0.904702  0.171340 -0.390074
			-0.929143 -0.345052 -0.132787
			-0.730644 -0.678976  0.071778
			-0.914985 -0.379841 -0.136100
			-0.591744 -0.717861  0.366762
			-0.620642 -0.751397  0.224067
			 0.894126 -0.407565 -0.185552
			 0.953886 -0.250767 -0.164980
			 0.963318  0.061491  0.261222
			 0.809894 -0.313681 -0.495657
			 0.744016 -0.253007 -0.618407
			 0.928168  0.128067 -0.349434
			 0.982788  0.079618  0.166700
			 0.998063 -0.033965 -0.052124
			 0.900663 -0.296631 -0.317516
			 0.987149  0.157843 -0.024959
			 0.918151  0.380424 -0.110801
			 0.978796 -0.128875 -0.159215
			 0.952786 -0.269887 -0.139137
			 0.995744  0.085151  0.035266
			 0.975871  0.217874  0.014356
			 0.994642  0.094080  0.042850
			-0.362415 -0.743063  0.562594
			 0.062672 -0.858349  0.509225
			 0.417730 -0.907218 -0.049579
			 0.359718 -0.705380 -0.610772
			 0.517429 -0.701128 -0.490599
			 0.280061 -0.951961 -0.123842
			 0.397147 -0.711933 -0.579160
			 0.368254 -0.727355 -0.579089
			 0.864569 -0.481258 -0.144607
			 0.841795 -0.471270 -0.263224
			 0.858953 -0.384131 -0.338590
			 0.460162 -0.762782 -0.454329
			 0.688855 -0.506613 -0.518481
			 0.506088 -0.493009 -0.707684
			 0.992781  0.076028  0.092765
			 0.917507  0.358043  0.173166
			 0.991711  0.121179  0.042730
			 0.963599  0.264960  0.035675
			-0.110253  0.986942 -0.117426
			-0.368591  0.929342 -0.021569
			 0.234236  0.971228  0.043020
			-0.301636  0.948969 -0.092048
			 0.908762  0.416966  0.017049
			 0.635008  0.771928 -0.029869
			 0.858725  0.509764  0.052267
			-0.344450  0.890519 -0.297202
			-0.548914  0.449251 -0.704888
			-0.452449  0.343892 -0.822817
			-0.433719  0.516370 -0.738411
			-0.008618  0.910897 -0.412544
			-0.256061  0.576026 -0.776290
			-0.021849  0.715692 -0.698074
			-0.265149  0.944095 -0.195909
			-0.295154  0.771457 -0.563682
			-0.284254  0.777513 -0.560957
			-0.109450  0.761212 -0.639200
			-0.044421  0.717622 -0.695014
			-0.269639  0.460210 -0.845873
			-0.385936  0.248681 -0.888376
			-0.364574  0.036244 -0.930469
			-0.419041  0.214591 -0.882244
			-0.209969  0.109149 -0.971596
			-0.213330  0.052318 -0.975578
			-0.135169 -0.024570 -0.990518
			-0.195962 -0.061669 -0.978671
			-0.079457 -0.030849 -0.996361
			-0.061749 -0.235949 -0.969802
			-0.080602  0.050288 -0.995477
			-0.113170  0.070411 -0.991078
			-0.205945  0.869461 -0.449026
			-0.287824  0.775945 -0.561308
			-0.177635  0.728856 -0.661222
			-0.150266  0.759023 -0.633486
			-0.594884  0.715714 -0.365879
			-0.512418  0.722809 -0.463654
			-0.609193 -0.715376  0.342230
			-0.626456 -0.682999  0.375585
			-0.659096 -0.705237  0.261214
			-0.839591  0.314670 -0.442798
			-0.939711 -0.054358 -0.337622
			-0.886416 -0.242038 -0.394568
			-0.658143 -0.565348 -0.497222
			-0.521485 -0.600306 -0.606372
			-0.579592 -0.787870 -0.208168
			-0.678669 -0.001574 -0.734443
			-0.676689  0.067100 -0.733205
			-0.855453 -0.261368 -0.447087
			-0.666562 -0.016220 -0.745273
			-0.594265 -0.800718  0.075498
			 0.829516 -0.348623 -0.436309
			 0.998316  0.056319 -0.013885
			 0.954266  0.286912 -0.084017
			 0.965896 -0.167425 -0.197518
			 0.952793 -0.300230 -0.045258
			 0.997869  0.062352 -0.019207
			 0.990697  0.088256 -0.103590
			 0.999842  0.014350 -0.010460
			 0.994080  0.022720 -0.106247
			 0.862605 -0.250361 -0.439582
			 0.819797 -0.320271 -0.474720
			 0.679979 -0.324767 -0.657385
			 0.994693  0.101715 -0.015513
			 0.995344  0.092378 -0.027508
			 0.966993  0.188173 -0.171803
			 0.985628  0.049813 -0.161418
			 0.979803  0.182354 -0.082059
			 0.968418  0.248200 -0.023745
			 0.938332  0.345038  0.021958
			 0.982301  0.059740 -0.177525
			-0.367495 -0.904470  0.216520
			 0.071088 -0.967194  0.243890
			 0.525324 -0.769048 -0.364143
			 0.625920 -0.437486 -0.645624
			 0.457093 -0.462463 -0.759732
			 0.733863 -0.505951 -0.453276
			 0.771364 -0.336711 -0.540022
			 0.487226 -0.781198 -0.390308
			 0.522427 -0.681635 -0.512293
			 0.784539 -0.339091 -0.519150
			 0.479459 -0.318088 -0.817887
			 0.531702 -0.169895 -0.829716
			 0.500673 -0.023181 -0.865326
			 0.680462 -0.355586 -0.640726
			 0.627555 -0.226628 -0.744859
			 0.983764  0.178853 -0.014845
			 0.385855  0.909341 -0.155612
			-0.025038  0.976010 -0.216280
			 0.963145  0.268968 -0.002924
			 0.910449  0.413393 -0.013748
			 0.774497  0.626888 -0.084652
			-0.323301  0.244424 -0.914184
			-0.084237  0.332681 -0.939270
			 0.409994  0.866568 -0.284543
			 0.384895  0.730782 -0.563749
			 0.095242  0.567070 -0.818144
			 0.398917  0.512148 -0.760638
			-0.110850  0.861480 -0.495544
			-0.387380  0.822647 -0.416159
			-0.469949  0.743552 -0.475687
			-0.353385  0.791802 -0.498166
			-0.224875  0.731277 -0.643945
			-0.472924  0.753468 -0.456760
			 0.160727  0.814264 -0.557799
			-0.158011  0.352634 -0.922324
			 0.337104  0.647213 -0.683722
			-0.000368  0.538053 -0.842911
			 0.290557  0.720715 -0.629401
			-0.243582  0.146096 -0.958814
			-0.173818  0.079044 -0.981600
			 0.028232  0.101467 -0.994438
			-0.095781  0.007155 -0.995377
			-0.035123  0.002996 -0.999378
			 0.088497 -0.000156 -0.996077
			 0.106559 -0.052905 -0.992898
			 0.055073 -0.009443 -0.998438
			-0.211716  0.628067 -0.748805
			-0.507765  0.603372 -0.614912
			-0.386136  0.366326 -0.846584
			-0.653485 -0.734955  0.181105
			-0.570389 -0.818448  0.069283
			-0.485679 -0.863445  0.136307
			-0.601398 -0.797805 -0.042762
			-0.574097 -0.816992 -0.054190
			-0.747291  0.184482 -0.638375
			-0.584355 -0.147168 -0.798042
			-0.510388 -0.619353 -0.596578
			-0.637580 -0.344305 -0.689163
			-0.527180 -0.807282 -0.265287
			-0.527562  0.164700 -0.833398
			-0.643593  0.256773 -0.721010
			-0.678209  0.233369 -0.696829
			-0.552433 -0.803938 -0.220230
			 0.966652 -0.120243 -0.226108
			 0.935627 -0.336027 -0.108110
			 0.984568 -0.134426 -0.112047
			 0.957205 -0.059435 -0.283242
			 0.915919 -0.010244 -0.401233
			 0.885204 -0.023998 -0.464584