<?xml version="1.0"?>
<VTKFile type="PolyData" version="0.1" byte_order="LittleEndian" compressor="vtkZLibDataCompressor">
	<PolyData>
		<Piece NumberOfPoints="300" NumberOfVerts="0" NumberOfLines="0" NumberOfStrips="0" NumberOfPolys="599">
		<PointData Normals="Normals">
		<DataArray type="Float32" Name="Normals" NumberOfComponents="3" format="ascii">
			-0.330079  0.933470  0.140288
			 0.048366  0.990213 -0.130912
			-0.167569  0.933496 -0.317026
			-0.421614  0.891296 -0.166835
			-0.761721  0.635978  0.123744
			-0.291508  0.864445  0.409583
			-0.784827  0.490267  0.379057
			 0.094729  0.973091  0.210047
			 0.221358  0.813818 -0.537308
			-0.101565  0.835646 -0.539797
			 0.408139  0.908267  0.092051
			-0.442857  0.707936 -0.550185
			-0.670329  0.714611 -0.199975
			-0.924036  0.314800 -0.216930
			-0.996652  0.062475 -0.052739
			 0.084158  0.884695  0.458511
			-0.664475  0.501300  0.554231
			-0.949228 -0.155722  0.273343
			 0.080837  0.456268 -0.886163
			-0.165919  0.625160 -0.762657
			 0.467042  0.720692 -0.512322
			 0.642092  0.766540 -0.011606
			 0.552284  0.770590  0.318076
			 0.410446  0.837299  0.361197
			-0.390811  0.431256 -0.813194
			-0.649457  0.374397 -0.661840
			-0.776205  0.488630 -0.398429
			-0.755875  0.122538 -0.643146
			-0.776039 -0.146178 -0.613511
			-0.761345 -0.592748 -0.262685
			 0.517098  0.790914  0.327208
			 0.047959  0.841188  0.538612
			-0.704806  0.461984  0.538349
			-0.937486 -0.028711  0.346836
			-0.801283 -0.580040  0.146622
			-0.340824  0.210199 -0.916327
			 0.281894  0.277216 -0.918524
			 0.736865  0.428813 -0.522637
			 0.840178  0.448233 -0.305267
			 0.727756  0.663310  0.174330
			 0.763297  0.452252  0.461353
			-0.224178 -0.064770 -0.972394
			-0.256323 -0.565234 -0.784098
			-0.649046 -0.704337 -0.287486
			 0.691377  0.423879  0.585085
			 0.217486  0.513234  0.830235
			-0.249519  0.275466  0.928364
			-0.753959 -0.014439  0.656763
			-0.878475 -0.356928  0.317622
			-0.786497 -0.601683  0.139282
			-0.851563 -0.512153 -0.111983
			 0.536687 -0.260252 -0.802643
			 0.707299 -0.140962 -0.692718
			 0.931201 -0.099411 -0.350689
			 0.998150 -0.008969  0.060137
			 0.889827  0.261855  0.373684
			 0.765041 -0.095717  0.636829
			 0.898188 -0.236917  0.370308
			 0.123341 -0.629993 -0.766744
			-0.303144 -0.457795 -0.835780
			 0.312690 -0.185564  0.931553
			-0.380546 -0.362685  0.850673
			-0.776411 -0.492634  0.393062
			-0.929065 -0.354124  0.106930
			-0.920533 -0.221929 -0.321508
			 0.683419 -0.398806 -0.611467
			 0.874237 -0.477135 -0.089733
			 0.892208 -0.450571 -0.030848
			 0.859776 -0.398413  0.319457
			 0.870016 -0.256241  0.421204
			 0.318572 -0.330504  0.888414
			 0.930026 -0.328788  0.164165
			 0.397722 -0.368528 -0.840240
			-0.157150 -0.149509 -0.976192
			 0.391505 -0.215178 -0.894663
			-0.235764 -0.407481  0.882255
			-0.764895 -0.405398  0.500587
			-0.971393 -0.197379  0.132046
			-0.867654 -0.101190 -0.486763
			-0.994844 -0.067767  0.075451
			 0.716691 -0.471529 -0.513824
			 0.890102 -0.423325 -0.168864
			 0.891318 -0.415140  0.182239
			 0.947307 -0.144623  0.285819
			 0.373107 -0.240142  0.896172
			-0.315258 -0.282541  0.905971
			 0.984634 -0.153808  0.082698
			-0.362843 -0.042360 -0.930887
			 0.467903 -0.037113 -0.883000
			 0.719647 -0.160479 -0.675540
			 0.712005 -0.367370 -0.598405
			-0.796242 -0.220125  0.563509
			-0.945504  0.001101 -0.325607
			-0.915462 -0.072114  0.395889
			 0.972882 -0.231247  0.005087
			 0.945928 -0.079785  0.314412
			 0.323654 -0.178890  0.929110
			-0.440819 -0.135037  0.887380
			 0.997653 -0.041593 -0.054382
			-0.546214  0.059954 -0.835498
			 0.254960  0.036742 -0.966253
			 0.962576 -0.055739 -0.265216
			 0.828868 -0.025687 -0.558855
			-0.964309  0.006572 -0.264699
			-0.950642  0.004913  0.310251
			 0.885939 -0.044491  0.461664
			 0.115209 -0.037878  0.992619
			-0.610355 -0.017564  0.791933
			 0.989130 -0.028489 -0.144257
			-0.945621  0.056377 -0.320348
			-0.276726  0.081355 -0.957499
			 0.604674  0.016695 -0.796298
			 0.959814 -0.040009 -0.277772
			-0.952174  0.000463  0.305557
			-0.554324 -0.007801  0.832265
			 0.893612 -0.060110  0.444798
			 0.218010 -0.042508  0.975020
			-0.998439  0.031365 -0.046206
			-0.609830  0.072521 -0.789207
			 0.427023  0.035198 -0.903555
			 0.936419 -0.012278 -0.350668
			 0.923617 -0.081183  0.374620
			-0.857923 -0.033758  0.512668
			-0.329520 -0.071181  0.941462
			 0.341088 -0.077575  0.936825
			-0.998258  0.036587  0.046291
			-0.647466  0.059495 -0.759768
			 0.362229  0.047847 -0.930860
			 0.931556 -0.009729 -0.363469
			 0.938635 -0.087884  0.333527
			 0.488333 -0.129456  0.863002
			-0.708918 -0.039107  0.704206
			-0.103565 -0.101265  0.989454
			-0.960786  0.062191  0.270228
			-0.292664  0.078116 -0.953019
			-0.884643  0.071578 -0.460742
			 0.460791  0.027939 -0.887069
			 0.942902 -0.011012 -0.332888
			 0.930653 -0.060265  0.360907
			 0.469676 -0.059830  0.880809
			-0.320237 -0.002305  0.947335
			-0.904271  0.031708  0.425779
			-0.083542  0.069989 -0.994043
			 0.484375  0.040985 -0.873900
			-0.906504 -0.028347 -0.421244
			 0.869996  0.007307 -0.493004
			 0.981101 -0.008131  0.193325
			 0.606896  0.009545  0.794724
			-0.439365  0.052686  0.896762
			-0.972235 -0.016445  0.233427
			-0.406128  0.099725 -0.908359
			 0.619201  0.170134 -0.766580
			 0.804333  0.107107 -0.584445
			-0.957297 -0.084817 -0.276386
			 0.999143  0.041352  0.002025
			 0.808927  0.001829  0.587907
			 0.239200  0.155238  0.958480
			-0.979641 -0.038594  0.197011
			-0.944864 -0.111212 -0.307999
			 0.047047  0.483687 -0.873976
			 0.893019  0.240883 -0.380123
			-0.997822 -0.054260 -0.037523
			 0.980143 -0.084559  0.179359
			 0.911056  0.169023  0.376043
			 0.792383  0.351868  0.498315
			-0.467928  0.336731  0.817102
			-0.798860 -0.550427 -0.242595
			-0.841676 -0.503101  0.196139
			-0.995519 -0.041593  0.084920
			-0.109430  0.803846 -0.584685
			 0.732579  0.510244 -0.450533
			 0.973377 -0.228787 -0.013929
			-0.956852 -0.103927  0.271353
			-0.979249 -0.188466 -0.074509
			-0.848527  0.121082  0.515113
			-0.697037 -0.285924 -0.657561
			 0.978165 -0.159721  0.132973
			 0.989748 -0.136623 -0.041635
			 0.984873  0.084912  0.151047
			 0.905863  0.254991  0.338219
			 0.439315  0.612040  0.657578
			-0.640366  0.008332  0.768025
			-0.694815 -0.662223  0.280521
			-0.861722 -0.506392 -0.031663
			-0.757736 -0.501837 -0.417129
			-0.476100 -0.473902 -0.740774
			-0.912352  0.286937 -0.292029
			-0.984681 -0.100096 -0.142774
			-0.986143 -0.035808  0.161987
			-0.835304 -0.172749  0.521944
			 0.080260  0.596542 -0.798559
			 0.704196  0.558384 -0.438538
			 0.930784  0.340753 -0.132395
			 0.982675 -0.158085 -0.096742
			-0.850655 -0.409594  0.329573
			-0.782531 -0.265552  0.563141
			-0.740371 -0.083778 -0.666958
			-0.890471 -0.424752 -0.163238
			-0.837347 -0.503963  0.211830
			-0.507764 -0.174466 -0.843645
			-0.367449 -0.130613 -0.920826
			 0.756424  0.637124  0.147974
			 0.716932  0.620480  0.317826
			 0.992938  0.103697  0.057625
			 0.921132 -0.105347 -0.374723
			 0.941981  0.215583  0.257284
			 0.872270  0.442830  0.207476
			-0.033799  0.160403  0.986473
			 0.439676  0.806176  0.395936
			 0.682276  0.729362  0.050308
			-0.196070 -0.290153  0.936679
			-0.969287  0.164082  0.183194
			-0.491746  0.741190 -0.456972
			-0.788961 -0.118663 -0.602877
			-0.487855  0.280004 -0.826798
			-0.793981  0.048110 -0.606035
			-0.973502 -0.121280 -0.193867
			-0.988051 -0.075145 -0.134565
			-0.928253 -0.245402 -0.279509
			-0.924743 -0.367459 -0.099120
			-0.914842  0.291410  0.279543
			-0.960600 -0.146299  0.236314
			 0.816331  0.205355 -0.539846
			 0.302760  0.059689 -0.951196
			 0.846176  0.357624 -0.395083
			-0.555582 -0.815664  0.161306
			-0.501278 -0.640304  0.582006
			-0.251393 -0.496840  0.830633
			-0.860198  0.180022 -0.477128
			-0.857656 -0.264808 -0.440798
			-0.631867 -0.716262 -0.296163
			-0.442678 -0.896674 -0.003606
			 0.830442  0.502075 -0.241425
			 0.739185  0.617902  0.267960
			 0.665557  0.741948  0.080912
			 0.819974  0.512065  0.255798
			 0.925264  0.378049 -0.031067
			 0.758930  0.386490 -0.524072
			 0.666815  0.738824  0.097456
			 0.408023  0.170255  0.896956
			 0.568853  0.713630  0.408826
			 0.445449  0.889207 -0.104336
			 0.289332  0.957228  0.001600
			 0.148475 -0.168102  0.974524
			-0.971251  0.231998 -0.053377
			 0.590283  0.775434 -0.224206
			-0.032938 -0.240913 -0.969988
			-0.350497 -0.526667 -0.774451
			-0.849606 -0.505004 -0.152117
			-0.620557 -0.629359 -0.467779
			-0.484465 -0.795244 -0.364528
			-0.751091 -0.587500  0.301173
			-0.966641 -0.254533 -0.028613
			 0.809779 -0.200373 -0.551460
			 0.786007  0.037734 -0.617064
			-0.269440 -0.771981  0.575715
			-0.218245 -0.974347  0.054930
			 0.046949 -0.996400 -0.070592
			-0.053988 -0.517272  0.854117
			-0.722283 -0.689263  0.056771
			-0.120395 -0.983278  0.136639
			-0.047509 -0.992500 -0.112632
			 0.067599 -0.993413 -0.092532
			 0.947331  0.181647  0.263760
			 0.885089  0.136828 -0.444854
			 0.968711  0.237626  0.071638
			 0.904932  0.410750 -0.111277
			 0.680345  0.709258  0.184619
			 0.568362  0.816859 -0.098522
			 0.671890  0.730517 -0.122105
			 0.787753  0.611330 -0.075637
			 0.734861  0.296477  0.609985
			 0.656528  0.744362 -0.122051
			 0.307402 -0.655414  0.689882
			 0.669969 -0.226077  0.707128
			 0.883772  0.466500  0.036395
			 0.810790 -0.038070 -0.584098
			-0.223161 -0.951949 -0.209742
			 0.710036 -0.508619 -0.486986
			 0.074983 -0.737759 -0.670887
			 0.344716 -0.764865 -0.544199
			-0.143871 -0.944136  0.296493
			 0.683426 -0.238091 -0.690102
			-0.076770 -0.876382  0.475459
			 0.350173 -0.933820 -0.073205
			 0.510192 -0.859474 -0.031763
			 0.620241 -0.777418 -0.104507
			 0.546026 -0.787578  0.285615
			 0.573763 -0.793948  0.201104
			 0.534372 -0.840656 -0.087998
			 0.904746 -0.315324  0.286366
			 0.941130 -0.323707  0.097405
			 0.852566 -0.371502 -0.367583
			 0.948708 -0.290589 -0.124548
			 0.968901 -0.242878  0.047347
			 0.872971  0.444222 -0.201464
			 0.994193 -0.080942 -0.070907
			 0.945104  0.307371 -0.110910
			 0.825083 -0.562775 -0.050224
			 0.975551 -0.207034 -0.073736
		</DataArray>
	</PointData>
	<Points>
		<DataArray type="Float32" NumberOfComponents="3" format="ascii">
			-0.007155  0.022663  0.003832
			 0.002353  0.023356 -0.002803
			-0.003244  0.022145 -0.007029
			-0.009188  0.021757 -0.003054
			-0.017598  0.015852  0.002462
			-0.003993  0.021530  0.010593
			-0.018156  0.012354  0.008207
			 0.002275  0.022932  0.006287
			 0.004971  0.020040 -0.011576
			-0.002427  0.019449 -0.012335
			 0.008166  0.022208  0.002045
			-0.010938  0.015935 -0.012544
			-0.015251  0.017942 -0.003615
			-0.021310  0.008721 -0.004652
			-0.022899  0.002425 -0.002320
			 0.000434  0.020121  0.014291
			-0.017473  0.010115  0.010857
			-0.022446 -0.000708  0.001880
			 0.001233  0.010930 -0.020080
			-0.004086  0.014405 -0.017265
			 0.012041  0.017227 -0.009431
			 0.014956  0.018153  0.000605
			 0.012429  0.018010  0.006077
			 0.007610  0.019474  0.009396
			-0.010928  0.009649 -0.017587
			-0.016575  0.009246 -0.013576
			-0.018211  0.012891 -0.007792
			-0.017751  0.002869 -0.014689
			-0.018077 -0.002902 -0.014250
			-0.017680 -0.007626 -0.011885
			 0.011280  0.015914  0.013108
			 0.004268  0.017597  0.020783
			-0.014716  0.008374  0.017163
			-0.016992  0.001942  0.013345
			-0.018456 -0.005989  0.001841
			-0.008703  0.003966 -0.020695
			 0.006588  0.004748 -0.020926
			 0.015519  0.015315 -0.008920
			 0.020082  0.010297 -0.004429
			 0.018581  0.013472  0.005078
			 0.018479  0.009825  0.012444
			-0.005922 -0.000902 -0.022249
			-0.004088 -0.008184 -0.021088
			-0.014168 -0.010596 -0.006234
			 0.015376  0.010933  0.015831
			 0.007396  0.012197  0.025325
			-0.003283  0.008705  0.026377
			-0.013737  0.001648  0.022501
			-0.016766 -0.004063  0.016965
			-0.012606 -0.009845  0.008658
			-0.009881 -0.016235 -0.002200
			 0.011399  0.000412 -0.019046
			 0.012713 -0.003616 -0.013976
			 0.025149  0.000617 -0.001751
			 0.025735  0.003363  0.003644
			 0.024020  0.006003  0.007184
			 0.017201 -0.003261  0.017416
			 0.018890 -0.003337  0.012127
			-0.004545 -0.013629 -0.015277
			-0.002202 -0.020117 -0.011343
			 0.006757 -0.005730  0.024424
			-0.007994 -0.006661  0.024288
			-0.008856 -0.013017  0.018095
			-0.009350 -0.016567  0.006621
			-0.007876 -0.022419 -0.003686
			 0.021547 -0.004656 -0.007384
			 0.020639 -0.007164 -0.002529
			 0.021890 -0.005532  0.001109
			 0.023147 -0.003132  0.004990
			 0.013998 -0.016768  0.014428
			 0.007661 -0.018510  0.018617
			 0.013916 -0.014016  0.007850
			 0.013524 -0.010481 -0.008362
			-0.000292 -0.025300 -0.009993
			 0.011849 -0.017701 -0.006517
			-0.000738 -0.019969  0.018286
			-0.005818 -0.020940  0.014888
			-0.008528 -0.020831  0.004821
			-0.007076 -0.026718 -0.003651
			-0.007637 -0.026900  0.003416
			 0.018906 -0.009752 -0.005891
			 0.016394 -0.015340 -0.002319
			 0.017376 -0.014082  0.001727
			 0.013496 -0.025435  0.011856
			 0.010080 -0.027862  0.014966
			-0.000955 -0.029565  0.014659
			 0.012182 -0.023823  0.005011
			-0.000496 -0.041919 -0.008140
			 0.008762 -0.042400 -0.007335
			 0.011699 -0.023893 -0.006030
			 0.015308 -0.015891 -0.005226
			-0.005025 -0.028850  0.011905
			-0.008240 -0.043255  0.001167
			-0.007796 -0.042698  0.005221
			 0.013812 -0.024251  0.000533
			 0.012751 -0.042883  0.007851
			 0.008526 -0.041976  0.012286
			-0.000761 -0.042723  0.012073
			 0.011029 -0.041944  0.002473
			-0.001930 -0.069544 -0.008766
			 0.005248 -0.069828 -0.008195
			 0.011456 -0.042134 -0.003658
			 0.010276 -0.070448 -0.004992
			-0.007103 -0.070953 -0.003238
			-0.007978 -0.071089  0.001440
			 0.012629 -0.073147  0.007015
			 0.003747 -0.071300  0.010301
			-0.006410 -0.071249  0.005919
			 0.011295 -0.070938  0.000594
			-0.008139 -0.094138 -0.002078
			-0.002702 -0.094297 -0.011241
			 0.004935 -0.096129 -0.010073
			 0.009461 -0.096869 -0.002659
			-0.007278 -0.095051  0.005450
			-0.003479 -0.096289  0.009406
			 0.010547 -0.099296  0.005653
			 0.003011 -0.096196  0.009137
			-0.008821 -0.117297 -0.003839
			-0.006297 -0.117521 -0.010624
			 0.002875 -0.118829 -0.011929
			 0.008569 -0.119485 -0.004240
			 0.009791 -0.116960  0.004989
			-0.006328 -0.117512  0.004643
			-0.003266 -0.116925  0.008734
			 0.004835 -0.117444  0.008255
			-0.010171 -0.147607 -0.003716
			-0.008081 -0.148241 -0.012067
			 0.001852 -0.148773 -0.014361
			 0.007425 -0.150734 -0.007848
			 0.007986 -0.152205 -0.000563
			 0.004291 -0.151938  0.003414
			-0.005137 -0.148847  0.003371
			 0.000289 -0.151330  0.005056
			-0.010682 -0.170536 -0.004051
			-0.005658 -0.193137 -0.016981
			-0.012464 -0.192921 -0.012504
			 0.002413 -0.193156 -0.016141
			 0.005380 -0.192929 -0.010625
			 0.005411 -0.194794 -0.004278
			 0.000467 -0.193890  0.000268
			-0.007298 -0.193380  0.001301
			-0.013136 -0.193137 -0.003797
			-0.005256 -0.227419 -0.018903
			-0.001158 -0.228425 -0.017326
			-0.012748 -0.227827 -0.012980
			 0.003402 -0.226637 -0.013316
			 0.005137 -0.226970 -0.007943
			-0.000305 -0.225814 -0.000853
			-0.010525 -0.226541  0.003325
			-0.013335 -0.226722 -0.003529
			-0.003615 -0.247872 -0.021303
			 0.000268 -0.246665 -0.017915
			 0.003717 -0.246915 -0.014849
			-0.011242 -0.242399 -0.011966
			 0.005378 -0.245431 -0.008828
			 0.001550 -0.245784 -0.001498
			-0.009665 -0.244816  0.005731
			-0.012037 -0.242822 -0.001386
			-0.008536 -0.259852 -0.015319
			-0.001495 -0.260296 -0.025350
			 0.006000 -0.261020 -0.015903
			-0.011129 -0.261075 -0.000199
			 0.006186 -0.262338 -0.012123
			 0.005545 -0.262529 -0.007731
			 0.002279 -0.262817  0.000811
			-0.007667 -0.260900  0.010428
			-0.006970 -0.266334 -0.009127
			-0.006093 -0.270213 -0.019561
			-0.005680 -0.274132 -0.025349
			-0.000219 -0.270320 -0.033987
			 0.003730 -0.266854 -0.025257
			 0.006736 -0.264837 -0.016813
			-0.010110 -0.273404  0.009054
			-0.010141 -0.279368  0.004475
			-0.009356 -0.265051  0.011089
			-0.008726 -0.273296 -0.001730
			 0.000543 -0.269516 -0.019547
			 0.005456 -0.266769 -0.012823
			 0.006112 -0.266775 -0.007410
			 0.003082 -0.272393  0.004595
			-0.004235 -0.270576  0.014945
			-0.005254 -0.279402  0.016580
			-0.001314 -0.273361 -0.016955
			 0.000624 -0.274196 -0.011630
			-0.001128 -0.274224 -0.006328
			-0.004515 -0.274949 -0.003621
			-0.005837 -0.275374 -0.032872
			-0.004980 -0.283163 -0.030496
			-0.005405 -0.291137 -0.020941
			-0.000784 -0.276645 -0.021791
			-0.000048 -0.275476 -0.040749
			 0.003690 -0.273340 -0.034135
			 0.005615 -0.271728 -0.027749
			 0.004907 -0.271847 -0.014437
			-0.005376 -0.291468  0.010361
			-0.005761 -0.286223  0.013935
			-0.008215 -0.286556  0.000746
			-0.007010 -0.293095  0.000731
			-0.005826 -0.290703  0.005216
			-0.007604 -0.281241 -0.000560
			-0.005255 -0.280590 -0.000547
			 0.009713 -0.278483 -0.024464
			 0.006099 -0.280151 -0.017543
			 0.006751 -0.271682 -0.006277
			 0.005123 -0.272035 -0.009627
			 0.004070 -0.274857  0.001301
			 0.002939 -0.274501  0.008290
			-0.000330 -0.281830  0.020771
			 0.008882 -0.280127  0.015308
			 0.004632 -0.278044  0.011244
			 0.000610 -0.286407  0.019544
			 0.002831 -0.278378 -0.017336
			 0.001770 -0.280534 -0.012010
			 0.001871 -0.279556 -0.004865
			-0.002557 -0.280813 -0.042445
			-0.002307 -0.284101 -0.043045
			-0.003949 -0.285493 -0.036700
			-0.004713 -0.288068 -0.026289
			-0.004991 -0.290135 -0.024310
			-0.004438 -0.297099 -0.022931
			-0.003259 -0.288600 -0.015178
			-0.003687 -0.291230 -0.016841
			 0.006180 -0.280740 -0.038445
			 0.000073 -0.282517 -0.042841
			 0.008076 -0.279409 -0.031089
			-0.000776 -0.297935  0.007316
			-0.001010 -0.294387  0.013980
			 0.001717 -0.290229  0.018066
			-0.004918 -0.287426 -0.002675
			-0.004298 -0.291975 -0.002914
			-0.000540 -0.296957 -0.005080
			-0.001149 -0.298908  0.000018
			 0.015406 -0.284528 -0.025336
			 0.013312 -0.283321 -0.020057
			 0.012064 -0.284744 -0.012793
			 0.005370 -0.277938  0.000189
			 0.008000 -0.278592 -0.004304
			 0.006441 -0.280080 -0.008673
			 0.004212 -0.277520  0.005751
			 0.009263 -0.283447  0.016698
			 0.011296 -0.281280  0.014078
			 0.008211 -0.278995  0.007128
			 0.006634 -0.278015  0.008810
			 0.010172 -0.289351  0.016043
			-0.003140 -0.288734 -0.009550
			 0.010340 -0.283020 -0.008705
			-0.002197 -0.285500 -0.043228
			-0.000876 -0.290486 -0.041449
			-0.004316 -0.288184 -0.031479
			-0.002703 -0.290263 -0.027093
			 0.001644 -0.302885 -0.025455
			-0.002499 -0.296840 -0.018021
			-0.002756 -0.291286 -0.009557
			 0.006761 -0.285540 -0.036787
			 0.008795 -0.286054 -0.030469
			 0.002317 -0.297589  0.011059
			 0.003432 -0.299874  0.006789
			 0.005069 -0.299011  0.001932
			 0.007460 -0.295108  0.014537
			-0.000776 -0.295464 -0.010884
			 0.003966 -0.298370 -0.011211
			 0.003981 -0.298598 -0.007254
			 0.003666 -0.299191 -0.002382
			 0.015714 -0.288724 -0.018685
			 0.017580 -0.289385 -0.026864
			 0.013674 -0.288393 -0.012535
			 0.013172 -0.285872 -0.009064
			 0.007513 -0.280087 -0.000029
			 0.006291 -0.279137  0.003778
			 0.009440 -0.282017  0.000790
			 0.008863 -0.281382 -0.004190
			 0.014688 -0.285733  0.015138
			 0.013095 -0.281181  0.006746
			 0.011682 -0.296932  0.013931
			 0.014112 -0.291093  0.016133
			 0.013613 -0.285364 -0.005840
			 0.006566 -0.290088 -0.035287
			 0.002684 -0.293483 -0.036206
			 0.005384 -0.291532 -0.037754
			 0.005130 -0.293851 -0.030730
			 0.011529 -0.301300 -0.028188
			 0.004218 -0.301180 -0.018558
			 0.007230 -0.291693 -0.030575
			 0.006782 -0.299695  0.010843
			 0.011076 -0.299271  0.006353
			 0.009532 -0.298110 -0.004600
			 0.009922 -0.297249  0.000014
			 0.011632 -0.299754 -0.020104
			 0.010544 -0.297107 -0.013407
			 0.010647 -0.296786 -0.009133
			 0.015569 -0.293575 -0.019386
			 0.013521 -0.292119 -0.012723
			 0.017085 -0.294866 -0.027418
			 0.014469 -0.292237 -0.008933
			 0.014833 -0.292261 -0.006123
			 0.013115 -0.286306 -0.001260
			 0.016858 -0.291095  0.005933
			 0.016818 -0.286690  0.006324
			 0.015577 -0.295345  0.006527
			 0.013551 -0.292249 -0.002188
		</DataArray>
	</Points>
			<Polys>
				<DataArray type="Int32" Name="connectivity" format="ascii">
					0 1 2 
					3 0 2 
					4 0 3 
					0 5 1 
					6 5 0 
					4 6 0 
					5 7 1 
					1 8 9 
					2 1 9 
					1 10 8 
					10 1 7 
					9 11 2 
					2 11 3 
					12 4 3 
					3 11 12 
					13 4 12 
					14 6 4 
					13 14 4 
					5 15 7 
					16 15 5 
					6 16 5 
					17 16 6 
					14 17 6 
					10 7 15 
					8 18 19 
					9 8 19 
					8 20 18 
					10 20 8 
					19 11 9 
					10 21 20 
					22 21 10 
					10 15 23 
					22 10 23 
					24 11 19 
					25 11 24 
					26 11 25 
					12 11 26 
					26 13 12 
					27 13 26 
					28 14 13 
					27 28 13 
					29 17 14 
					28 29 14 
					15 30 23 
					15 31 30 
					16 31 15 
					16 32 31 
					17 32 16 
					17 33 32 
					17 34 33 
					29 34 17 
					18 35 24 
					19 18 24 
					18 36 35 
					20 36 18 
					20 37 36 
					21 37 20 
					21 38 37 
					21 39 38 
					22 39 21 
					22 40 39 
					22 30 40 
					22 23 30 
					24 35 25 
					25 27 26 
					35 27 25 
					41 28 27 
					35 41 27 
					42 29 28 
					41 42 28 
					29 43 34 
					42 43 29 
					30 44 40 
					31 44 30 
					31 45 44 
					32 45 31 
					32 46 45 
					32 47 46 
					33 47 32 
					33 48 47 
					34 48 33 
					34 49 48 
					34 50 49 
					43 50 34 
					36 41 35 
					36 51 41 
					37 51 36 
					37 52 51 
					37 38 52 
					38 53 52 
					38 54 53 
					38 55 54 
					39 55 38 
					39 40 55 
					44 56 40 
					40 57 55 
					56 57 40 
					51 42 41 
					42 58 43 
					51 58 42 
					43 59 50 
					58 59 43 
					60 56 44 
					45 60 44 
					46 60 45 
					61 60 46 
					47 61 46 
					62 61 47 
					48 62 47 
					48 49 62 
					49 63 62 
					49 50 63 
					50 64 63 
					50 59 64 
					51 52 58 
					52 65 58 
					52 53 65 
					53 66 65 
					67 66 53 
					54 67 53 
					68 67 54 
					55 68 54 
					57 68 55 
					56 69 57 
					70 69 56 
					60 70 56 
					57 71 68 
					69 71 57 
					58 72 59 
					58 65 72 
					59 73 64 
					59 74 73 
					59 72 74 
					75 70 60 
					61 75 60 
					76 75 61 
					62 76 61 
					62 63 76 
					63 77 76 
					63 64 77 
					64 78 79 
					77 64 79 
					64 73 78 
					72 65 80 
					66 80 65 
					66 81 80 
					67 81 66 
					82 81 67 
					68 82 67 
					71 82 68 
					69 83 71 
					84 83 69 
					70 84 69 
					85 84 70 
					75 85 70 
					71 86 82 
					83 86 71 
					72 80 74 
					73 87 78 
					88 87 73 
					89 88 73 
					73 74 89 
					74 90 89 
					74 80 90 
					91 85 75 
					76 91 75 
					76 77 91 
					77 79 91 
					78 92 79 
					87 92 78 
					79 93 91 
					92 93 79 
					81 90 80 
					81 89 90 
					94 89 81 
					82 94 81 
					86 94 82 
					83 95 86 
					96 95 83 
					84 96 83 
					97 96 84 
					85 97 84 
					93 97 85 
					91 93 85 
					95 98 86 
					86 98 94 
					87 99 92 
					100 99 87 
					88 100 87 
					101 88 89 
					102 100 88 
					101 102 88 
					94 101 89 
					92 103 93 
					99 103 92 
					93 104 97 
					103 104 93 
					98 101 94 
					95 105 98 
					106 105 95 
					96 106 95 
					107 106 96 
					97 107 96 
					104 107 97 
					98 108 101 
					105 108 98 
					99 109 103 
					110 109 99 
					100 110 99 
					111 110 100 
					102 111 100 
					108 102 101 
					112 111 102 
					108 112 102 
					103 113 104 
					109 113 103 
					104 114 107 
					113 114 104 
					105 115 108 
					116 115 105 
					106 116 105 
					114 116 106 
					107 114 106 
					115 112 108 
					109 117 113 
					118 117 109 
					110 118 109 
					119 118 110 
					111 119 110 
					120 119 111 
					112 120 111 
					121 120 112 
					115 121 112 
					113 122 114 
					117 122 113 
					114 123 116 
					122 123 114 
					124 121 115 
					116 124 115 
					123 124 116 
					117 125 122 
					126 125 117 
					118 126 117 
					127 126 118 
					119 127 118 
					128 127 119 
					120 128 119 
					129 128 120 
					121 129 120 
					130 129 121 
					124 130 121 
					122 131 123 
					125 131 122 
					123 132 124 
					131 132 123 
					132 130 124 
					133 131 125 
					134 135 125 
					126 134 125 
					133 125 135 
					136 134 126 
					127 136 126 
					137 136 127 
					128 137 127 
					138 137 128 
					129 138 128 
					139 138 129 
					130 139 129 
					140 139 130 
					132 140 130 
					131 141 132 
					133 141 131 
					141 140 132 
					133 135 141 
					134 142 135 
					143 142 134 
					136 143 134 
					135 144 141 
					142 144 135 
					145 143 136 
					137 145 136 
					146 145 137 
					138 146 137 
					147 146 138 
					139 147 138 
					148 147 139 
					140 148 139 
					149 148 140 
					141 149 140 
					144 149 141 
					142 150 144 
					151 150 142 
					143 151 142 
					152 151 143 
					145 152 143 
					144 153 149 
					150 153 144 
					154 152 145 
					146 154 145 
					155 154 146 
					147 155 146 
					156 155 147 
					148 156 147 
					157 156 148 
					149 157 148 
					153 157 149 
					150 158 153 
					150 159 158 
					151 159 150 
					151 160 159 
					152 160 151 
					154 160 152 
					153 161 157 
					153 158 161 
					154 162 160 
					155 162 154 
					155 163 162 
					156 163 155 
					156 164 163 
					156 165 164 
					157 165 156 
					157 161 165 
					158 166 161 
					158 167 166 
					158 168 167 
					159 168 158 
					159 169 168 
					170 169 159 
					160 170 159 
					171 170 160 
					162 171 160 
					172 161 173 
					174 161 172 
					165 161 174 
					175 173 161 
					161 166 175 
					162 176 171 
					177 162 178 
					171 162 177 
					163 178 162 
					179 178 163 
					164 179 163 
					180 179 164 
					165 180 164 
					165 174 181 
					180 165 181 
					182 166 167 
					183 166 182 
					184 166 183 
					185 166 184 
					175 166 185 
					182 167 168 
					168 169 186 
					187 168 186 
					188 168 187 
					188 189 168 
					189 182 168 
					186 169 190 
					191 190 169 
					170 191 169 
					192 191 170 
					171 192 170 
					176 192 171 
					171 177 193 
					176 171 193 
					172 173 194 
					195 172 194 
					174 172 195 
					173 196 197 
					198 173 197 
					194 173 198 
					199 173 175 
					199 196 173 
					181 174 195 
					175 185 200 
					199 175 200 
					176 201 192 
					176 193 202 
					201 176 202 
					177 178 203 
					204 177 203 
					193 177 204 
					205 203 178 
					179 205 178 
					179 180 206 
					205 179 206 
					180 181 207 
					180 207 208 
					209 180 208 
					206 180 209 
					181 195 210 
					207 181 210 
					183 182 189 
					211 183 189 
					212 183 211 
					184 183 212 
					213 184 212 
					185 184 213 
					200 185 213 
					186 190 214 
					215 186 214 
					187 186 215 
					216 187 215 
					217 187 216 
					217 188 187 
					218 188 217 
					219 188 218 
					220 189 188 
					221 188 219 
					221 220 188 
					220 211 189 
					222 223 190 
					191 222 190 
					223 214 190 
					224 222 191 
					192 224 191 
					201 224 192 
					193 204 212 
					202 193 212 
					194 198 225 
					226 194 225 
					227 194 226 
					195 194 227 
					210 195 227 
					196 200 228 
					196 199 200 
					196 228 229 
					197 196 229 
					197 229 230 
					231 197 230 
					198 197 231 
					225 198 231 
					228 200 213 
					201 232 224 
					201 202 233 
					232 201 233 
					202 212 234 
					233 202 234 
					235 236 203 
					205 235 203 
					204 203 236 
					237 204 236 
					212 204 237 
					205 206 238 
					235 205 238 
					238 206 209 
					207 210 239 
					208 207 239 
					208 239 240 
					241 208 240 
					241 242 208 
					238 209 208 
					242 238 208 
					210 227 243 
					239 210 243 
					244 211 220 
					244 212 211 
					228 212 244 
					228 213 212 
					212 237 245 
					234 212 245 
					215 214 223 
					246 215 223 
					216 215 246 
					247 216 246 
					248 216 247 
					248 217 216 
					218 217 248 
					249 218 248 
					219 218 249 
					250 219 249 
					251 219 250 
					251 221 219 
					244 220 221 
					252 221 251 
					252 244 221 
					222 253 223 
					254 253 222 
					224 254 222 
					253 246 223 
					232 254 224 
					255 226 225 
					256 225 257 
					255 225 256 
					257 225 231 
					227 226 255 
					258 227 255 
					243 227 258 
					228 244 252 
					229 228 252 
					229 252 259 
					230 229 259 
					230 259 260 
					261 230 260 
					231 230 261 
					262 231 261 
					257 231 262 
					263 264 232 
					233 263 232 
					232 264 254 
					265 263 233 
					234 265 233 
					266 265 234 
					245 266 234 
					235 267 236 
					235 238 268 
					267 235 268 
					269 270 236 
					267 269 236 