<?xml version="1.0"?>
<VTKFile type="PolyData" version="0.1" byte_order="LittleEndian" compressor="vtkZLibDataCompressor">
	<PolyData>
		<Piece NumberOfPoints="2507" NumberOfVerts="0" NumberOfLines="0" NumberOfStrips="0" NumberOfPolys="5039">
		<PointData Normals="Normals">
		<DataArray type="Float32" Name="Normals" NumberOfComponents="3" format="ascii">
			-0.153432 -0.985219 -0.076172
			 0.000051 -0.955892  0.293717
			-0.275167 -0.961313  0.012692
			 0.024503 -0.997988  0.058475
			 0.051463 -0.993218 -0.104256
			-0.150498 -0.962671 -0.224977
			-0.423696 -0.884206 -0.196628
			 0.194738 -0.933155  0.302158
			-0.080993 -0.871274  0.484069
			-0.190300 -0.955531  0.225270
			 0.388738 -0.826785  0.406583
			 0.255937 -0.891275  0.374333
			 0.134795 -0.892216  0.431023
			-0.377493 -0.903100  0.204720
			 0.196230 -0.980181  0.027204
			 0.233987 -0.970496 -0.058210
			 0.170190 -0.942165 -0.288723
			-0.202331 -0.906995 -0.369354
			-0.575414 -0.817209  0.032700
			-0.409307 -0.830109 -0.378664
			-0.557444 -0.780315 -0.283487
			-0.705645 -0.698988 -0.116105
			 0.370506 -0.924149  0.093131
			-0.355985 -0.830823  0.427794
			 0.129591 -0.814220  0.565908
			-0.232844 -0.794106  0.561408
			-0.208103 -0.743049  0.636059
			 0.074406 -0.700232  0.710028
			 0.066814 -0.782935  0.618506
			-0.103574 -0.806882  0.581562
			 0.610147 -0.668434  0.425343
			 0.502494 -0.737400  0.451377
			 0.484260 -0.757087  0.438534
			 0.532077 -0.824764  0.191465
			 0.335805 -0.783974  0.522130
			-0.520598 -0.800863  0.295967
			 0.353359 -0.928009 -0.118051
			 0.406245 -0.886667 -0.220876
			 0.041079 -0.852076 -0.521804
			 0.310671 -0.844270 -0.436682
			 0.473557 -0.857313 -0.201886
			-0.260769 -0.810351 -0.524719
			-0.648938 -0.747085  0.144022
			-0.522841 -0.749882 -0.405357
			-0.460286 -0.746593 -0.480349
			-0.649860 -0.675447 -0.348502
			-0.739741 -0.662155  0.119726
			-0.818463 -0.568237 -0.085001
			-0.822659 -0.553994 -0.127762
			 0.490527 -0.871406  0.005938
			-0.561099 -0.746408  0.357832
			-0.403948 -0.766908  0.498676
			 0.233636 -0.699738  0.675116
			-0.367007 -0.703802  0.608250
			-0.289711 -0.612064  0.735830
			-0.031794 -0.613228  0.789266
			 0.276568 -0.589429  0.759002
			 0.220343 -0.499534  0.837804
			 0.094823 -0.534514  0.839823
			 0.526639 -0.700776  0.481210
			 0.583749 -0.571505  0.576732
			 0.674250 -0.576298  0.461809
			 0.725769 -0.592033  0.350367
			 0.702257 -0.689496  0.177284
			 0.746695 -0.568738  0.344940
			 0.464860 -0.655519  0.595148
			 0.193063 -0.815255 -0.545973
			-0.142662 -0.730234 -0.668137
			 0.128865 -0.744402 -0.655179
			 0.517480 -0.767128 -0.379115
			 0.223135 -0.757531 -0.613480
			 0.305306 -0.735243 -0.605149
			 0.485270 -0.765562 -0.422408
			 0.647585 -0.755217 -0.101397
			-0.404072 -0.677561 -0.614521
			-0.504947 -0.630606 -0.589377
			-0.590589 -0.574568 -0.566636
			-0.774466 -0.591359 -0.224714
			-0.771644 -0.507999 -0.382756
			-0.691660 -0.631870  0.349780
			-0.847081 -0.530780  0.026953
			-0.860717 -0.484532  0.156190
			-0.916334 -0.397474 -0.048431
			-0.847019 -0.511770 -0.143702
			-0.935534 -0.350866 -0.040848
			-0.513479 -0.653079  0.556622
			 0.450702 -0.584452  0.674747
			-0.129349 -0.528697  0.838897
			-0.215307 -0.515861  0.829174
			-0.376106 -0.566259  0.733413
			 0.529017 -0.488530  0.693887
			 0.093813 -0.465442  0.880093
			 0.177474 -0.400139  0.899106
			 0.465757 -0.388092  0.795271
			 0.334969 -0.357080  0.871946
			-0.044017 -0.461695  0.885946
			 0.621570 -0.525655  0.580808
			 0.631067 -0.570293  0.525852
			 0.681021 -0.622025  0.386387
			 0.677908 -0.603500  0.419796
			 0.643912 -0.693352  0.323482
			 0.749189 -0.625810  0.216973
			 0.775285 -0.608149  0.170551
			 0.797203 -0.573937  0.187254
			 0.074944 -0.589378 -0.804374
			-0.195584 -0.572329 -0.796358
			-0.372657 -0.622396 -0.688295
			 0.257168 -0.618047 -0.742888
			 0.436650 -0.656316 -0.615293
			 0.366722 -0.625966 -0.688245
			 0.597241 -0.750637 -0.282572
			 0.552664 -0.699922 -0.452407
			 0.718777 -0.695203  0.007150
			 0.787470 -0.607785  0.102415
			-0.410982 -0.528668 -0.742700
			-0.484773 -0.451033 -0.749376
			-0.653411 -0.450531 -0.608338
			-0.928834 -0.346631 -0.130819
			-0.851808 -0.366497 -0.374302
			-0.717736 -0.328784 -0.613805
			-0.811630 -0.471303  0.345153
			-0.878942 -0.425378  0.215674
			-0.934975 -0.333591  0.120573
			-0.974644 -0.140849  0.173873
			-0.981228 -0.176482  0.077752
			-0.991192 -0.100295  0.086485
			-0.534242 -0.628249  0.565587
			-0.136771 -0.456173  0.879318
			-0.236268 -0.458408  0.856761
			-0.448060 -0.439109  0.778733
			-0.560018 -0.467398  0.684046
			 0.612690 -0.345698  0.710707
			 0.625994 -0.480177  0.614461
			 0.094439 -0.371283  0.923704
			 0.273774 -0.263034  0.925127
			 0.529190 -0.299926  0.793727
			 0.388749 -0.233650  0.891225
			-0.051359 -0.398243  0.915841
			 0.658958 -0.454689  0.599193
			 0.635488 -0.496235  0.591528
			 0.742754 -0.626780  0.235507
			 0.663520 -0.606501  0.438063
			 0.805368 -0.504204  0.311708
			 0.678307 -0.467364  0.566983
			 0.763449 -0.629776  0.143275
			 0.253887 -0.444344 -0.859127
			-0.097804 -0.468689 -0.877932
			 0.081971 -0.474504 -0.876428
			-0.315932 -0.416886 -0.852287
			 0.375788 -0.511220 -0.772941
			 0.358819 -0.524271 -0.772262
			 0.529536 -0.637950 -0.559116
			 0.664575 -0.682281 -0.304685
			 0.743224 -0.669028  0.004349
			 0.722888 -0.667280  0.179360
			-0.412197 -0.311919 -0.856038
			-0.511656 -0.275238 -0.813911
			-0.959828 -0.224476 -0.168344
			-0.995826 -0.090071  0.014777
			-0.872013 -0.237740 -0.427870
			-0.748224 -0.159582 -0.643967
			-0.936447 -0.138271 -0.322409
			-0.691499 -0.537143  0.483018
			-0.928902 -0.275420  0.247559
			-0.996677 -0.007661  0.081094
			-0.981845 -0.125557  0.142185
			-0.930725  0.078833  0.357121
			-0.962599  0.129404  0.238028
			-0.985842  0.129402  0.106634
			-0.918057  0.175677  0.355399
			-0.899723  0.227112  0.372718
			-0.931942  0.105711  0.346855
			-0.968923 -0.000749  0.247360
			-0.344819 -0.350800  0.870655
			-0.134588 -0.359801  0.923271
			-0.569285 -0.337655  0.749602
			-0.862093 -0.324102  0.389556
			-0.771647 -0.322072  0.548481
			 0.670985 -0.203442  0.713015
			 0.713031 -0.296665  0.635277
			 0.047787 -0.328182  0.943405
			 0.192516 -0.161909  0.967845
			 0.081610 -0.234983  0.968567
			 0.360718 -0.187181  0.913699
			 0.158879 -0.191382  0.968571
			 0.526357 -0.221892  0.820800
			 0.550064 -0.137152  0.823784
			-0.005880 -0.297766  0.954621
			 0.656902 -0.452518  0.603081
			 0.855405 -0.429143  0.290032
			 0.819239 -0.523136  0.234898
			 0.764266 -0.387883  0.515212
			 0.581418 -0.525467  0.621158
			 0.907106 -0.333423  0.256881
			 0.856981 -0.378547  0.349693
			 0.299583 -0.407402 -0.862713
			 0.092942 -0.415096 -0.905018
			 0.174635 -0.311690 -0.933998
			-0.281388 -0.266509 -0.921843
			-0.069442 -0.363645 -0.928946
			 0.369858 -0.547157 -0.750882
			 0.251299 -0.413486 -0.875145
			 0.732973 -0.619396 -0.281247
			 0.567774 -0.640802 -0.516726
			 0.759223 -0.633393 -0.149650
			 0.805762 -0.588625 -0.065336
			 0.837345 -0.533585  0.118916
			-0.394477 -0.226204 -0.890629
			-0.559184 -0.123554 -0.819785
			-0.999871 -0.004179  0.015504
			-0.944987  0.198312  0.260139
			-0.865286 -0.053819 -0.498380
			-0.979015 -0.031169 -0.201391
			-0.986130  0.165977 -0.000133
			-0.993807 -0.069681 -0.086551
			-0.958150  0.203400  0.201439
			-0.937780  0.192095  0.289253
			-0.945088  0.170918  0.278559
			-0.118468 -0.270396  0.955432
			-0.322095 -0.303705  0.896671
			-0.497799 -0.279200  0.821123
			-0.771344 -0.262549  0.579738
			-0.752698 -0.257435  0.605948
			-0.935936 -0.266534  0.230180
			-0.954832 -0.168482  0.244765
			-0.984021 -0.131885  0.119618
			 0.765050 -0.164747  0.622541
			 0.757124 -0.217984  0.615829
			 0.685021 -0.111305  0.719970
			 0.754382 -0.144324  0.640373
			 0.193299 -0.006944  0.981115
			 0.077782 -0.054031  0.995505
			 0.049703 -0.209470  0.976551
			 0.532222 -0.195169  0.823802
			 0.353922 -0.253315  0.900317
			 0.133603 -0.161936  0.977715
			 0.158102 -0.190593  0.968854
			 0.041597 -0.175456  0.983608
			 0.631935 -0.163408  0.757599
			 0.894843 -0.376067  0.240480
			 0.929793 -0.294320  0.221044
			 0.800177 -0.051250  0.597570
			 0.961301 -0.120076  0.247956
			 0.874911  0.051820  0.481504
			 0.843846 -0.024286  0.536035
			-0.012821 -0.268127 -0.963298
			 0.223474 -0.264010 -0.938274
			 0.214198 -0.167299 -0.962357
			 0.032267 -0.045445 -0.998446
			-0.146782 -0.214054 -0.965731
			-0.290800 -0.149552 -0.945024
			 0.512411 -0.551275 -0.658430
			 0.261074 -0.447291 -0.855436
			 0.346961 -0.506506 -0.789347
			 0.159296 -0.262404 -0.951719
			 0.861397 -0.498885 -0.095444
			 0.639360 -0.576329 -0.508983
			 0.823014 -0.493752 -0.280815
			 0.901529 -0.422515  0.093418
			-0.357946 -0.126816 -0.925091
			-0.707265 -0.087302 -0.701538
			-0.451257 -0.116110 -0.884808
			-0.593402 -0.068430 -0.801992
			-0.988349  0.111553  0.103551
			-0.915100  0.280915  0.289271
			-0.946110  0.005593 -0.323796
			-0.837633 -0.045290 -0.544352
			-0.912240  0.063004 -0.404783
			-0.970261  0.033715 -0.239702
			-0.992217  0.021883 -0.122579
			-0.979729  0.147371  0.135693
			-0.985709 -0.069378 -0.153505
			-0.991099  0.107438  0.078614
			-0.998078  0.038061  0.048911
			-0.998193 -0.013228  0.058612
			-0.951107  0.137338  0.276646
			 0.020374 -0.160365  0.986847
			-0.114653 -0.196844  0.973708
			-0.150771 -0.219611  0.963867
			-0.403398 -0.331316  0.852936
			-0.693335 -0.233660  0.681681
			-0.873516 -0.171229  0.455688
			-0.894309 -0.205268  0.397588
			-0.999501  0.031264  0.004514
			-0.955035  0.057487  0.290868
			 0.807062 -0.098600  0.582176
			 0.827848 -0.221720  0.515274
			 0.716447 -0.250975  0.650934
			 0.217716  0.010482  0.975956
			 0.124522 -0.065655  0.990042
			 0.540254 -0.299795  0.786288
			 0.503105 -0.285542  0.815691
			 0.361644 -0.298195  0.883342
			 0.116356 -0.121543  0.985743
			 0.177005 -0.003509  0.984204
			-0.018538 -0.038693  0.999079
			 0.133950 -0.164894  0.977173
			 0.013796 -0.053053  0.998496
			 0.621278 -0.336964  0.707438
			 0.934895 -0.350591  0.055291
			 0.861303 -0.080366  0.501695
			 0.877841  0.025368  0.478279
			 0.842723 -0.002082  0.538343
			 0.909303  0.172090  0.378884
			 0.933170 -0.358533 -0.025448
			 0.970388 -0.239207  0.033577
			 0.972290 -0.043450  0.229703
			 0.893888  0.258891  0.365978
			 0.944338  0.080989  0.318852
			 0.230588 -0.121591 -0.965425
			 0.216731 -0.064390 -0.974106
			-0.116088 -0.159260 -0.980388
			-0.203957 -0.099389 -0.973922
			-0.071506  0.034271 -0.996851
			 0.176182  0.047515 -0.983210
			 0.048838  0.189067 -0.980749
			 0.086496  0.226579 -0.970144
			 0.125503  0.268737 -0.955002
			-0.265840 -0.052912 -0.962564
			 0.337954 -0.477271 -0.811171
			 0.236825 -0.434935 -0.868761
			-0.018910 -0.258511 -0.965823
			 0.191251 -0.105860 -0.975816
			-0.114112 -0.111930 -0.987142
			 0.637704 -0.526050 -0.562677
			 0.854662 -0.419438 -0.305981
			-0.309106 -0.051801 -0.949616
			-0.728808  0.010380 -0.684640
			-0.795796  0.003263 -0.605556
			-0.450647 -0.096150 -0.887509
			-0.555607 -0.021545 -0.831166
			-0.947260  0.114234  0.299414
			-0.908071  0.154231  0.389384
			-0.988268  0.131624 -0.077470
			-0.959010  0.055779 -0.277829
			-0.790802  0.067378 -0.608352
			-0.948160  0.180069 -0.261855
			-0.983515  0.177020 -0.036908
			-0.957825 -0.072626 -0.278024
			-0.939368 -0.065516 -0.336594
			-0.969508 -0.084119 -0.230169
			-0.954913 -0.151655 -0.255230
			-0.997834 -0.046068  0.046966
			-0.943684 -0.192811 -0.268856
			-0.930556 -0.203566 -0.304347
			-0.931270  0.222094  0.288808
			-0.989625  0.125594  0.069770
			-0.951531  0.203301  0.230777
			-0.992956 -0.028539  0.114996
			-0.283160 -0.155105  0.946448
			 0.003601 -0.065109  0.997872
			-0.647615 -0.247066  0.720800
			-0.924514 -0.066971  0.375218
			-0.892583 -0.250776  0.374710
			-0.947703 -0.151983 -0.280641
			-0.995370 -0.096116  0.000626
			 0.800993 -0.382852  0.460254
			 0.920739 -0.366401  0.134124
			 0.946359 -0.234438  0.222360
			 0.688764 -0.375248  0.620317
			 0.574650 -0.391061  0.718922
			 0.467270 -0.348660  0.812462
			 0.348967 -0.335841  0.874890
			 0.112409 -0.028654  0.993249
			-0.048899  0.004476  0.998794
			-0.043003  0.087459  0.995240
			-0.081056  0.065894  0.994529
			-0.043669 -0.013928  0.998949
			-0.076184  0.080171  0.993865
			 0.014291  0.018393  0.999729
			 0.153895 -0.180172  0.971522
			 0.018158  0.065202  0.997707
			-0.033132  0.031080  0.998968
			-0.014050  0.037572  0.999195
			 0.914859  0.023313  0.403100
			 0.937520  0.155001  0.311497
			 0.919278 -0.328106 -0.217427
			 0.934351 -0.283911 -0.215368
			 0.984281 -0.153044  0.088141
			 0.967563 -0.043406  0.248874
			 0.918001  0.222226  0.328468
			 0.904806  0.100754  0.413732
			 0.896675  0.115095  0.427466
			-0.156584  0.068970 -0.985254
			 0.054364 -0.005455 -0.998506
			 0.078498  0.299398 -0.950894
			 0.014660  0.164234 -0.986313
			 0.214670  0.190492 -0.957930
			 0.260334  0.243315 -0.934357
			-0.220971  0.036642 -0.974592
			 0.245894 -0.340319 -0.907590
			 0.568886 -0.484416 -0.664612
			 0.529401 -0.434956 -0.728387
			-0.140889 -0.222299 -0.964745
			-0.022047 -0.258188 -0.965843
			-0.267882 -0.155360 -0.950843
			-0.157761 -0.221672 -0.962275
			-0.277650 -0.008558 -0.960644
			-0.299359 -0.023093 -0.953861
			-0.251653  0.205279 -0.945797
			 0.789591 -0.407306 -0.458965
			-0.329467  0.046166 -0.943038
			-0.158852  0.068617 -0.984915
			-0.590920  0.087720 -0.801947
			-0.965291  0.238318  0.106856
			-0.888506  0.174502 -0.424388
			-0.726396  0.165307 -0.667100
			-0.960127  0.209699 -0.184885
			-0.896678 -0.215225 -0.386843
			-0.902756 -0.254274 -0.346954
			-0.984590 -0.088959 -0.150565
			-0.861965 -0.323593 -0.390261
			-0.835389 -0.150441 -0.528671
			-0.808671 -0.337380 -0.481899
			-0.999987  0.002272 -0.004524
			-0.974473  0.168154 -0.148749
			-0.636844 -0.188648  0.747557
			-0.200937 -0.081341  0.976221
			-0.860815 -0.269699  0.431579
			-0.893943 -0.410441  0.180010
			-0.885529 -0.340271  0.316313
			-0.931481 -0.299229 -0.206893
			-0.928296 -0.365280 -0.069548
			 0.900584 -0.418739  0.116646
			 0.762974 -0.434521  0.478604
			 0.944239 -0.312770 -0.102892
			 0.986002 -0.158980  0.050248
			 0.556269 -0.472599  0.683532
			 0.712558 -0.441677  0.545145
			 0.455438 -0.461271  0.761450
			 0.363210 -0.360910  0.858966
			-0.207624  0.109573  0.972052
			-0.017759  0.104711  0.994344
			 0.042287  0.085875  0.995408
			-0.254843  0.119919  0.959518
			 0.030255  0.122736  0.991978
			-0.108839  0.074763  0.991244
			 0.024783  0.069585  0.997268
			 0.115580  0.077173  0.990296
			-0.030602  0.090113  0.995461
			-0.175255  0.113423  0.977968
			 0.036355 -0.048322  0.998170
			 0.182844 -0.179138  0.966684
			-0.077208  0.100712  0.991915
			-0.232513 -0.055525  0.971007
			 0.994351 -0.040499  0.098116
			 0.959737 -0.009407  0.280741
			 0.869554 -0.276107 -0.409439
			 0.945930 -0.194909 -0.259281
			 0.969025 -0.210815 -0.128638
			 0.991393 -0.112189 -0.067483
			 0.990635 -0.069649  0.117433
			 0.970344 -0.001768  0.241722
			 0.908530  0.095956  0.406652
			 0.950054 -0.064291  0.305393
			 0.904945  0.059887  0.421292
			 0.941389 -0.116655  0.316511
			 0.982473 -0.103621  0.154952
			 0.916059 -0.091876  0.390379
			-0.145046  0.139221 -0.979581
			-0.052374  0.405695 -0.912507
			 0.167519  0.090467 -0.981709
			-0.047612  0.145905 -0.988152
			 0.080812  0.013593 -0.996637
			-0.167048  0.142135 -0.975650
			 0.365812 -0.283359 -0.886504
			 0.643323 -0.356831 -0.677354
			 0.272827 -0.248556 -0.929400
			-0.009365 -0.213652 -0.976865
			-0.135481 -0.118946 -0.983614
			-0.294732 -0.087766 -0.951541
			-0.335340  0.096524 -0.937139
			-0.289342  0.179136 -0.940315
			-0.236976  0.194918 -0.951761
			-0.206379  0.067858 -0.976116
			-0.234799 -0.025717 -0.971704
			-0.117405  0.132098 -0.984259
			-0.462563  0.173698 -0.869405
			-0.896704  0.246697 -0.367508
			-0.750773  0.236754 -0.616675
			-0.871554 -0.420406 -0.252294
			-0.994085  0.038733 -0.101460
			-0.926514 -0.086441 -0.366197
			-0.955567  0.071775 -0.285901
			-0.828855 -0.189075 -0.526545
			-0.784736 -0.043059 -0.618332
			-0.849883 -0.006146 -0.526935
			-0.865657 -0.390447 -0.313351
			-0.883766  0.307807 -0.352438
			-0.972058  0.161065 -0.170769
			-0.925373  0.273920 -0.262016
			-0.434625 -0.004183  0.900602
			-0.760763 -0.115813  0.638613
			-0.755664 -0.131719  0.641578
			-0.832640 -0.328775  0.445666
			-0.863233 -0.341984  0.371317
			-0.902362 -0.383210  0.197210
			-0.875224 -0.482366 -0.036134
			 0.913199 -0.396273 -0.095051
			 0.859042 -0.463459  0.217378
			 0.929901 -0.242887 -0.276209
			 0.978961 -0.168510 -0.115067
			 0.662410 -0.461629  0.590010
			 0.478272 -0.493610  0.726364
			 0.585248 -0.599918  0.545511
			 0.585089 -0.543938  0.601501
			 0.803080 -0.511270  0.306047
			 0.367553 -0.291925  0.882998
			-0.240967  0.136010  0.960956
			-0.359198  0.189243  0.913873
			 0.101053 -0.061083  0.993004
			-0.093300  0.056978  0.994006
			-0.100950  0.059412  0.993116
			-0.026685  0.071921  0.997053
			-0.436641  0.176592  0.882134
			-0.421302  0.102643  0.901093
			-0.274519  0.062559  0.959545
			 0.013357  0.177064  0.984109
			 0.090936  0.179951  0.979463
			-0.074452  0.093332  0.992847
			 0.127277  0.101079  0.986703
			 0.186848  0.182166  0.965352
			 0.244617  0.127150  0.961247
			 0.122305  0.183959  0.975295
			 0.130117  0.079645  0.988295
			-0.106404  0.076560  0.991371
			 0.085889  0.057772  0.994628
			-0.085664  0.066279  0.994117
			 0.053433  0.054636  0.997076
			-0.122191  0.024536  0.992203
			 0.119916  0.077874  0.989725
			 0.089635  0.062927  0.993985
			 0.265024  0.109215  0.958037
			 0.149189  0.089361  0.984762
			 0.266093  0.097420  0.959012
			-0.098685  0.142397  0.984878
			-0.250599  0.183433  0.950554
			 0.075220 -0.142548  0.986926
			-0.361692  0.141714  0.921464
			 0.988792 -0.117563  0.092028
			 0.847785 -0.234400 -0.475728
			 0.923682 -0.157210 -0.349424
			 0.985774 -0.076582 -0.149616
			 0.955338 -0.018361  0.294945
			 0.996398  0.057325  0.062482
			 0.921103  0.030537  0.388121
			 0.963155  0.044811  0.265188
			 0.966416 -0.185045 -0.178319
			 0.953682 -0.126505  0.272924
			 0.997848 -0.003649  0.065466
			 0.999450  0.033052 -0.002738
			 0.907214 -0.062795  0.415957
			 0.974867 -0.059161  0.214790
			-0.002664 -0.052221 -0.998632
			-0.102742  0.125193 -0.986798
			-0.120959  0.260231 -0.957940
			 0.714074 -0.198748 -0.671265
			 0.546600 -0.168399 -0.820287
			 0.349569 -0.130956 -0.927713
			-0.033804  0.002788 -0.999425
			 0.335313 -0.060093 -0.940188
			-0.077497  0.194105 -0.977915
			-0.144075  0.389573 -0.909657
			-0.157044  0.324559 -0.932737
			-0.167058  0.160054 -0.972869
			-0.125360  0.227300 -0.965722
			-0.196145  0.178527 -0.964186
			-0.265898  0.262603 -0.927544
			-0.532977  0.285967 -0.796340
			-0.816061  0.353760 -0.457053
			-0.711911  0.339117 -0.614965
			-0.861833  0.169656 -0.477977
			-0.916395  0.159762 -0.367011
			-0.897546  0.228999 -0.376789
			-0.900860 -0.282856 -0.329308
			-0.851588  0.003803 -0.524197
			-0.950142 -0.116707 -0.289153
			-0.803867  0.107742 -0.584970
			-0.956663 -0.290828  0.014639
			-0.825294  0.339151 -0.451517
			-0.695535  0.393430 -0.601202
			-0.850288  0.302974 -0.430367
			-0.563163 -0.000740  0.826345
			-0.641858  0.048119  0.765312
			-0.804391 -0.157378  0.572877
			-0.917223 -0.197606  0.345909
			 0.883026 -0.313407 -0.349343
			 0.872110 -0.361781 -0.329450
			 0.762009 -0.598258  0.247849
			 0.900109 -0.428292 -0.079805
			 0.473503 -0.416024  0.776350
			 0.547590 -0.383437  0.743721
			 0.726388 -0.345681  0.594025
			 0.814676 -0.512785  0.270842
			 0.467015 -0.216250  0.857399
			 0.343768 -0.142816  0.928131
			-0.383445  0.185766  0.904688
			-0.574607  0.245773  0.780655
			-0.531215  0.254807  0.808013
			-0.021227  0.098845  0.994876
			 0.238243  0.068874  0.968761
			-0.635784  0.165880  0.753832
			-0.561935  0.113782  0.819318
			-0.556508  0.099002  0.824923
			-0.293106  0.077160  0.952961
			-0.474591  0.115330  0.872618
			 0.156755  0.206559  0.965796
			 0.283624  0.188986  0.940129
			 0.235563  0.116227  0.964884
			 0.402521  0.164712  0.900470
			 0.482115  0.124008  0.867287
			 0.047060  0.043706  0.997935
			-0.489046  0.113419  0.864853
			-0.182990  0.055405  0.981552
			-0.422996  0.047608  0.904880
			 0.134248  0.062649  0.988965
			 0.203086  0.066596  0.976894
			 0.396244  0.074450  0.915122
			 0.284067  0.084089  0.955110
			-0.515351  0.164222  0.841097
			 0.899882 -0.101049 -0.424266
			 0.954294  0.004089 -0.298842
			 0.935503  0.059667  0.348244
			 0.957016 -0.011210 -0.289819
			 0.979195  0.017019 -0.202208
			 0.964979  0.079500  0.249992
			 0.968040  0.199854  0.151514
			 0.952244  0.298803 -0.062834
			 0.883194 -0.278061 -0.377691
			 0.937200 -0.242021 -0.251160
			 0.976833 -0.187857  0.102504
			 0.921255 -0.111038  0.372774
			 0.987839  0.089477 -0.127153
			 0.982111  0.185983 -0.029460
			 0.967645 -0.227114  0.109923
			 0.973886 -0.198864  0.109542
			 0.999547  0.022714 -0.019763
			-0.176378  0.287825 -0.941301
			-0.233182  0.319142 -0.918572
			 0.784646 -0.077761 -0.615047
			 0.595681 -0.107732 -0.795964
			 0.695795  0.073465 -0.714473
			 0.312469  0.073602 -0.947072
			 0.026820  0.437609 -0.898765
			 0.380552  0.298001 -0.875429
			 0.099156  0.435811 -0.894559
			 0.069007  0.561021 -0.824920
			-0.063287  0.294719 -0.953486
			-0.135652  0.179242 -0.974408
			-0.298707  0.185035 -0.936235
			-0.097933  0.218451 -0.970921
			-0.370871  0.297387 -0.879782
			-0.387838  0.388853 -0.835688
			-0.802807  0.211613 -0.557424
			-0.888728  0.319496 -0.328762
			-0.875597  0.287527 -0.388147
			-0.913110  0.229265 -0.337147
			-0.917912  0.176383 -0.355424
			-0.904476  0.198333 -0.377607
			-0.800443  0.265271 -0.537515
			-0.870021  0.229401 -0.436393
			-0.953596  0.192177 -0.231781
			-0.819422  0.198117 -0.537864
			-0.994511 -0.056703  0.087935
			-0.988573  0.147300 -0.032036
			-0.667526  0.368902 -0.646777
			-0.720243  0.045347  0.692239
			-0.869178 -0.009816  0.494403
			-0.976593  0.086849  0.196785
			 0.863024 -0.316882 -0.393415
			 0.864967 -0.336010 -0.372731
			 0.954483 -0.222358 -0.198796
			 0.964975 -0.244203  0.095858
			 0.895224 -0.352403  0.272737
			 0.584256 -0.230433  0.778169
			 0.671101 -0.154952  0.724992
			 0.733161 -0.074144  0.676001
			 0.889301 -0.160797  0.428121
			 0.528149 -0.041843  0.848120
			 0.366940 -0.038203  0.929460
			-0.546499  0.228913  0.805567
			-0.847699  0.275176  0.453525
			-0.699296  0.306222  0.645921
			 0.411543  0.100219  0.905863
			 0.313450  0.184546  0.931500
			-0.796511  0.189421  0.574186
			-0.696580  0.168793  0.697341
			-0.689517  0.137618  0.711075
			-0.781774  0.200582  0.590421
			 0.397008  0.224975  0.889815
			 0.487418  0.231734  0.841857
			 0.621949  0.195951  0.758144
			 0.658782  0.160698  0.734971
			 0.740850  0.089103  0.665734
			 0.528839  0.077970  0.845133
			 0.610837  0.081630  0.787537
			-0.230681  0.182272  0.955805
			-0.330618  0.176326  0.927147
			-0.767593  0.167092  0.618774
			-0.466681  0.090670  0.879766
			-0.368917  0.111152  0.922792
			-0.675543  0.106733  0.729554
			 0.151511  0.033971  0.987872
			-0.157238  0.090102  0.983442
			 0.141795  0.069400  0.987460
			 0.165370  0.042807  0.985302
			 0.234609  0.054599  0.970555
			 0.181663  0.052956  0.981934
			 0.445583  0.049275  0.893884
			 0.301926  0.043816  0.952324
			-0.716927  0.129941  0.684932
			-0.577616  0.162060  0.800060
			 0.897428  0.002637 -0.441154
			 0.906110  0.108408 -0.408916
			 0.933223  0.357230 -0.038476
			 0.885984  0.379196 -0.266912
			 0.784887  0.539577 -0.304645
			 0.854087  0.473723 -0.214761
			 0.869227 -0.312308 -0.383286
			 0.862705 -0.334938 -0.378889
			 0.913198 -0.393796 -0.104853
			 0.950091  0.176730 -0.257088
			 0.974866  0.148982 -0.165655
			 0.906663  0.365849 -0.210039
			 0.987627  0.041881 -0.151122
			 0.934299 -0.168461 -0.314176
			 0.932190  0.004861 -0.361938
			 0.749550  0.322168 -0.578259
			 0.411917  0.532870 -0.739171
			 0.375957  0.497102 -0.782014
			 0.263349  0.346470 -0.900336
			 0.045567  0.242244 -0.969145
			 0.231707  0.572122 -0.786758
			 0.347009  0.613059 -0.709749
			-0.094505  0.161255 -0.982378
			-0.150996  0.171389 -0.973564
			-0.069115  0.170387 -0.982950
			-0.262504  0.195809 -0.944855
			-0.379915  0.210464 -0.900761
			-0.480361  0.244874 -0.842194
			-0.649931  0.267579 -0.711331
			-0.950658  0.301206 -0.074322
			-0.968370  0.234782  0.084478
			-0.937080  0.217788 -0.272855
			-0.854265  0.391683 -0.341784
			-0.908121  0.316593 -0.274018
			-0.950748  0.210340 -0.227674
			-0.933082  0.213330 -0.289566
			-0.906246  0.158369 -0.391965
			-0.926758  0.147445 -0.345513
			-0.848037  0.188770 -0.495175
			-0.709770  0.222308 -0.668436
			-0.793186  0.093227  0.601801
			-0.885478  0.181284  0.427861
			 0.897290 -0.238124 -0.371710
			 0.866687 -0.301161 -0.397688
			 0.972756  0.013049 -0.231462
			 0.983575 -0.091339  0.155684
			 0.999403  0.003325  0.034391
			 0.839980  0.067329  0.538424
			 0.642415  0.099142  0.759917
			 0.943848  0.103783  0.313656
			 0.497162  0.157909  0.853168
			-0.807983  0.209919  0.550544
			-0.890912  0.335564  0.306060
			-0.948761  0.233947  0.212416
			-0.953703  0.295141  0.057822
			-0.962513  0.259756  0.078068
			-0.864317  0.385400  0.323147
			-0.843867  0.250877  0.474288
			-0.856917  0.196936  0.476350
			-0.884815  0.224032  0.408549
			-0.918518  0.187035  0.348342
			-0.932587  0.215061  0.289878
			 0.615564  0.243065  0.749667
			 0.657624  0.260032  0.707047
			 0.746312  0.243363  0.619510
			 0.801067  0.180160  0.570819
			 0.932815  0.118437  0.340337
			 0.918315  0.084149  0.386802
			 0.743219  0.072847  0.665070
			 0.634979  0.064269  0.769851
			-0.523970  0.122725  0.842849
			-0.896095  0.188716  0.401745
			-0.741087  0.139095  0.656843
			 0.091550  0.028893  0.995381
			-0.283980  0.075639  0.955842
			-0.255493  0.046866  0.965674
			-0.238792  0.059943  0.969219
			 0.087393  0.035989  0.995524
			 0.183253  0.031499  0.982561
			 0.019442  0.058489  0.998099
			 0.197524  0.033580  0.979723
			 0.231416  0.047318  0.971703
			 0.297322  0.022504  0.954512
			 0.532756  0.008044  0.846231
			 0.730875  0.024106  0.682085
			 0.694075  0.550662 -0.463716
			 0.787401  0.504181 -0.354685
			 0.909838  0.233388 -0.343110
			 0.883361  0.280396 -0.375567
			 0.966828  0.113261 -0.228946
			 0.738060  0.475340 -0.478873
			 0.911504 -0.019817 -0.410813
			 0.940661  0.074242 -0.331126
			 0.904768  0.038622 -0.424150
			 0.922706  0.054453 -0.381640
			 0.534646  0.581381 -0.613311
			 0.594838  0.418937 -0.686047
			 0.401156  0.357365 -0.843424
			 0.181246  0.249314 -0.951311
			 0.310004  0.305428 -0.900339
			-0.019337  0.153678 -0.987932
			 0.092221  0.195749 -0.976308
			-0.096957  0.107119 -0.989507
			-0.263749  0.145409 -0.953568
			-0.434634  0.197049 -0.878786
			-0.539470  0.232216 -0.809350
			-0.955480  0.250340  0.156163
			-0.924925  0.365970 -0.102855
			-0.897806  0.438005 -0.045791
			-0.900806  0.426526 -0.081391
			-0.944859  0.325964 -0.031448
			-0.953891  0.209610 -0.214838
			-0.929194  0.219102 -0.297647
			-0.871338  0.138929 -0.470605
			-0.955288  0.168421 -0.243020
			-0.967345  0.117263 -0.224705
			-0.950226  0.075046 -0.302387
			-0.904598  0.090049 -0.416644
			-0.878072  0.124174 -0.462137
			-0.797727  0.148538 -0.584439
			-0.527146  0.179689 -0.830559
			-0.661282  0.136044 -0.737698
			 0.987839  0.153271  0.026101
			 0.981759  0.169292 -0.086538
			 0.974054  0.187554 -0.126659
			 0.781221  0.205033  0.589623
			 0.918920  0.189357  0.346021
			-0.925523  0.281356  0.253469
			-0.970356  0.194131  0.143954
			-0.980348  0.197107  0.008203
			-0.970531  0.237982 -0.037871
			-0.963361  0.236660 -0.126206
			-0.977610  0.172828  0.120042
			-0.961105  0.157903  0.226592
			-0.967164  0.203495  0.152259
			 0.850707  0.261731  0.455845
			 0.872750  0.265122  0.409901
			 0.910217  0.211298  0.356172
			 0.969321  0.201680  0.140503
			 0.982104  0.107119  0.154909
			 0.991310  0.100642  0.084705
			 0.995804  0.065468  0.063938
			 0.952736  0.064477  0.296879
			 0.993522  0.095946  0.060899
			 0.886176  0.058244  0.459673
			-0.805688  0.188759  0.561460
			-0.835236  0.113646  0.538020
			-0.541123  0.096600  0.835376
			-0.773022  0.091910  0.627686
			-0.912233  0.159805  0.377218
			-0.859938  0.177718  0.478459
			-0.521184  0.099514  0.847622
			-0.362472  0.118118  0.924479
			-0.471941  0.089000  0.877127
			 0.178081  0.030733  0.983536
			 0.160653  0.032792  0.986466
			-0.210811  0.049801  0.976257
			 0.038183  0.067622  0.996980
			 0.349252  0.031002  0.936516