<?xml version="1.0"?>
<VTKFile type="PolyData" version="0.1" byte_order="LittleEndian" compressor="vtkZLibDataCompressor">
	<PolyData>
		<Piece NumberOfPoints="2380" NumberOfVerts="0" NumberOfLines="0" NumberOfStrips="0" NumberOfPolys="4811">
		<PointData Normals="Normals">
		<DataArray type="Float32" Name="Normals" NumberOfComponents="3" format="ascii">
			-0.298349 -0.719576  0.627055
			-0.259136 -0.748303  0.610648
			-0.155891 -0.705375  0.691479
			-0.276810 -0.668396  0.690379
			-0.468042 -0.751310  0.465263
			-0.385029 -0.684785  0.618726
			-0.255806 -0.812950  0.523139
			-0.171764 -0.823056  0.541365
			-0.161878 -0.571759  0.804293
			-0.050575 -0.733525  0.677778
			 0.001466 -0.649516  0.760347
			-0.044048 -0.567971  0.821869
			-0.381390 -0.575115  0.723730
			-0.488817 -0.771146  0.407911
			-0.565102 -0.662286  0.491972
			-0.750409 -0.595616  0.286578
			-0.689516 -0.656174  0.306598
			-0.511252 -0.584601  0.629971
			-0.306184 -0.858988  0.410354
			-0.138128 -0.830957  0.538917
			-0.122276 -0.895465  0.428008
			-0.279617 -0.513348  0.811350
			-0.030164 -0.450377  0.892328
			-0.100800 -0.395982  0.912709
			-0.011592 -0.836320  0.548119
			 0.144194 -0.794039  0.590516
			 0.145258 -0.673638  0.724646
			 0.061935 -0.535856  0.842035
			 0.088195 -0.621607  0.778348
			 0.068082 -0.440324  0.895254
			-0.500765 -0.443993  0.743038
			-0.593280 -0.469805  0.653684
			-0.506132 -0.824770  0.252161
			-0.593144 -0.734120  0.330526
			-0.701738 -0.515904  0.491332
			-0.855412 -0.497484  0.144152
			-0.867574 -0.418879  0.268059
			-0.908101 -0.397158  0.132735
			-0.728475 -0.668120  0.151459
			-0.279138 -0.920887  0.272119
			 0.148015 -0.908991  0.389650
			-0.218544 -0.950380  0.221397
			-0.039071 -0.967262  0.250753
			-0.296075 -0.410520  0.862446
			 0.089735 -0.376041  0.922248
			-0.110481 -0.357443  0.927377
			-0.029588 -0.257300  0.965878
			-0.040042 -0.270686  0.961835
			-0.223405 -0.273491  0.935571
			 0.270497 -0.851265  0.449645
			 0.265624 -0.795631  0.544440
			 0.170207 -0.550675  0.817182
			 0.337635 -0.636545  0.693406
			 0.170554 -0.478023  0.861629
			 0.156334 -0.375637  0.913486
			 0.199495 -0.310699  0.929337
			-0.758536 -0.298214  0.579389
			-0.440440 -0.316751  0.840048
			-0.747512 -0.281214  0.601784
			-0.881088 -0.227108  0.414857
			-0.560817 -0.827418  0.029404
			-0.371749 -0.917368  0.142260
			-0.868027 -0.493948  0.050450
			-0.939927 -0.330915  0.083859
			-0.970153 -0.086388  0.226583
			-0.980434 -0.184366  0.068988
			-0.754269 -0.656552  0.004205
			-0.348485 -0.928594  0.127554
			 0.186399 -0.960684  0.205771
			 0.313552 -0.897189  0.311025
			-0.094253 -0.993542  0.063172
			-0.155448 -0.987283 -0.033288
			-0.269456 -0.953873  0.132364
			 0.047386 -0.993475  0.103737
			 0.069524 -0.137419  0.988070
			 0.128765 -0.210710  0.969031
			 0.308942 -0.341666  0.887592
			-0.077277 -0.194135  0.977926
			-0.191110 -0.262379  0.945851
			-0.403151 -0.218671  0.888624
			 0.373519 -0.843393  0.386229
			 0.369541 -0.825796  0.426028
			 0.361471 -0.787032  0.499920
			 0.533768 -0.723317  0.438069
			 0.277702 -0.441165  0.853379
			 0.666686 -0.509266  0.544222
			 0.561690 -0.473881  0.678189
			 0.209975 -0.311099  0.926891
			 0.392551 -0.264672  0.880825
			 0.487954 -0.240118  0.839192
			 0.229163 -0.274359  0.933923
			-0.938235 -0.058084  0.341088
			-0.939911 -0.088644  0.329713
			-0.615717 -0.217167  0.757451
			-0.877997 -0.178565  0.444112
			-0.985185 -0.087266  0.147633
			-0.988597  0.057722  0.139085
			-0.468894 -0.851478 -0.234784
			-0.342770 -0.934908 -0.091953
			-0.636511 -0.758165 -0.141562
			-0.791253 -0.585488 -0.176415
			-0.942221 -0.330666  0.053669
			-0.987475 -0.104636  0.118091
			-0.976176  0.065337  0.206911
			-0.979354  0.077433  0.186737
			 0.302075 -0.927444  0.220451
			 0.197554 -0.980248  0.009269
			 0.477641 -0.850423  0.220546
			 0.030464 -0.979043 -0.201364
			-0.156133 -0.948267 -0.276429
			 0.125029 -0.115997  0.985349
			-0.007940 -0.044245  0.998989
			 0.396639 -0.329255  0.856895
			-0.112878 -0.181048  0.976975
			-0.070160 -0.228308  0.971058
			-0.392599 -0.371452  0.841362
			-0.478263 -0.225879  0.848671
			 0.058716 -0.225858  0.972389
			-0.171540 -0.350150  0.920852
			-0.003483 -0.264219  0.964456
			 0.560494 -0.748374  0.354659
			 0.751624 -0.521396  0.403991
			 0.579456 -0.361743  0.730324
			 0.488828 -0.275183  0.827842
			 0.705473 -0.399022  0.585739
			 0.788995 -0.362169  0.496307
			 0.869176 -0.305964  0.388484
			 0.794408 -0.214928  0.568087
			 0.787168 -0.154098  0.597177
			 0.784919 -0.116634  0.608522
			 0.762844 -0.191736  0.617500
			 0.134810 -0.301118  0.944010
			-0.892305 -0.129987  0.432314
			-0.705176 -0.281655  0.650690
			-0.987676 -0.074285  0.137761
			-0.997404 -0.026239  0.067061
			-0.203010 -0.876400 -0.436704
			-0.416750 -0.846778 -0.330583
			-0.508358 -0.812607 -0.285030
			-0.602158 -0.697889 -0.387758
			-0.622905 -0.619043 -0.478305
			-0.886718 -0.406837 -0.219580
			-0.554306 -0.705855 -0.441037
			-0.957557 -0.285774 -0.037666
			-0.979141 -0.160602  0.124456
			-0.965436  0.020115  0.259862
			-0.969361  0.090034  0.228544
			 0.399454 -0.916692  0.010591
			 0.354841 -0.904124 -0.238009
			 0.387974 -0.886974 -0.250506
			 0.645573 -0.762995  0.032786
			 0.628887 -0.729903  0.267849
			-0.083291 -0.878506 -0.470414
			 0.167604 -0.886657 -0.430985
			 0.082555 -0.107636  0.990757
			 0.174139 -0.173981  0.969230
			 0.152227 -0.130628  0.979675
			 0.248275 -0.107681  0.962686
			-0.140959 -0.203791  0.968814
			 0.670420 -0.432739  0.602722
			 0.802706 -0.329519  0.497072
			 0.386495 -0.425231  0.818413
			 0.024530 -0.300160  0.953573
			-0.182096 -0.229694  0.956076
			-0.115531 -0.317576  0.941168
			-0.536169 -0.468762  0.701987
			-0.344146 -0.371660  0.862225
			 0.144380 -0.093242  0.985120
			 0.725358 -0.606130  0.326287
			 0.878742 -0.391525  0.272985
			 0.698586 -0.225639  0.679018
			 0.858085 -0.070977  0.508579
			 0.896151 -0.115473  0.428461
			 0.946600 -0.102246  0.305769
			 0.920563 -0.264315  0.287579
			 0.910347  0.029561  0.412788
			 0.904443 -0.153225  0.398126
			 0.933187 -0.096116  0.346299
			-0.107599 -0.166896  0.980086
			-0.038027 -0.217770  0.975259
			-0.956167 -0.259338  0.135970
			-0.736800 -0.465528  0.490316
			-0.998444 -0.055630  0.003885
			-0.990413  0.070654  0.118701
			-0.999873  0.005485  0.014938
			-0.319518 -0.706888 -0.631045
			-0.061618 -0.778904 -0.624109
			-0.435715 -0.762671 -0.478001
			 0.092441 -0.810588 -0.578275
			-0.002319 -0.826395 -0.563086
			-0.734256 -0.435393 -0.520866
			-0.528114 -0.475950 -0.703255
			-0.433974 -0.605473 -0.667135
			-0.981517 -0.162828 -0.100560
			-0.906966 -0.263077 -0.328943
			-0.985114 -0.096411  0.142319
			-0.959124  0.067818  0.274739
			-0.945416  0.120003  0.302964
			-0.965988  0.056386  0.252365
			 0.466481 -0.812261 -0.350183
			 0.324909 -0.845963 -0.422826
			 0.329004 -0.798528 -0.504092
			 0.665361 -0.698082 -0.264530
			 0.750550 -0.635120  0.182479
			 0.785200 -0.619239  0.001816
			 0.328865 -0.778557 -0.534506
			-0.044909 -0.221617  0.974099
			 0.167731 -0.126032  0.977743
			 0.749853 -0.452215  0.482931
			 0.922481 -0.276793  0.269098
			 0.844910 -0.413190  0.339708
			 0.400913 -0.371204  0.837542
			 0.116758 -0.229655  0.966244
			 0.628583 -0.578821  0.519471
			-0.148757 -0.128814  0.980448
			-0.121772 -0.181766  0.975773
			-0.546705 -0.425838  0.720955
			-0.843223 -0.468268  0.264006
			-0.152098 -0.084512  0.984746
			-0.337282 -0.190983  0.921828
			 0.083555  0.050675  0.995214
			 0.057547  0.004648  0.998332
			 0.822993 -0.501969  0.265914
			 0.882900 -0.442028  0.158423
			 0.935512 -0.337356  0.104920
			 0.938029 -0.257402  0.232048
			 0.900784  0.033185  0.432997
			 0.887776 -0.056237  0.456828
			 0.907891 -0.045044  0.416779
			 0.894603  0.022845  0.446278
			 0.967407 -0.177783  0.180327
			 0.952497 -0.155590  0.261803
			 0.910807  0.010928  0.412688
			 0.949669 -0.201371  0.239957
			-0.205114 -0.114623  0.972003
			-0.222590 -0.087112  0.971012
			-0.187570 -0.091728  0.977959
			-0.137376 -0.087014  0.986690
			-0.965958 -0.237148 -0.103376
			-0.929272 -0.319417 -0.185541
			-0.752001 -0.352241  0.557155
			-0.990887 -0.117892 -0.065146
			-0.974307 -0.204159 -0.095106
			-0.972562  0.125533  0.195869
			-0.985074 -0.003740  0.172091
			-0.988302 -0.150444 -0.025033
			-0.106296 -0.684936 -0.720808
			-0.178194 -0.640748 -0.746786
			-0.310762 -0.549532 -0.775527
			 0.064126 -0.706846 -0.704455
			-0.053213 -0.647957 -0.759816
			 0.264618 -0.682389 -0.681412
			-0.527406 -0.418157 -0.739586
			-0.825944 -0.305204 -0.473990
			-0.381439 -0.472836 -0.794311
			-0.995457  0.002220  0.095186
			-0.974531 -0.187462 -0.123078
			-0.998544 -0.029346 -0.045255
			-0.965564  0.132588  0.223846
			 0.388639 -0.665299 -0.637446
			 0.495189 -0.729660 -0.471577
			 0.864271 -0.502997 -0.005378
			 0.631083 -0.669918 -0.391080
			 0.804094 -0.519778 -0.288554
			 0.865028 -0.498016 -0.060881
			 0.888561 -0.451875 -0.079170
			-0.060482 -0.122392  0.990637
			 0.077110 -0.071467  0.994458
			 0.809214 -0.500302  0.308012
			 0.773307 -0.526183  0.353735
			 0.909637 -0.398256  0.118118
			 0.204064 -0.152516  0.967004
			 0.336677 -0.160531  0.927835
			 0.548496 -0.303993  0.778936
			 0.592287 -0.509874  0.623878
			 0.101953 -0.045463  0.993750
			 0.755602 -0.564217  0.332754
			 0.692699 -0.620418  0.367764
			-0.127730 -0.085819  0.988089
			-0.035404 -0.056120  0.997796
			-0.594350 -0.231937  0.770034
			-0.704497 -0.394754  0.589791
			-0.877072 -0.428435 -0.217229
			-0.810159 -0.582811 -0.063037
			-0.893507 -0.443103  0.072837
			-0.698113 -0.173547  0.694636
			-0.829694 -0.381572  0.407444
			-0.156415  0.017748  0.987532
			-0.410226 -0.061675  0.909896
			 0.076906  0.015621  0.996916
			-0.092294  0.080338  0.992486
			 0.006815  0.036003  0.999328
			 0.943033 -0.327854  0.056571
			 0.814945  0.036716  0.578374
			 0.927219 -0.112840  0.357117
			 0.827607 -0.024524  0.560772
			 0.969884 -0.214146  0.116045
			 0.961060 -0.153238  0.229962
			 0.822595  0.008082  0.568571
			 0.938282 -0.143674  0.314617
			 0.953938 -0.286360  0.089442
			-0.214029 -0.056869  0.975170
			-0.199459  0.016928  0.979760
			-0.063268  0.088441  0.994070
			-0.955918 -0.236663 -0.173813
			-0.953274  0.084526  0.290040
			-0.983156 -0.179693 -0.033381
			-0.988975 -0.144185  0.033737
			-0.969606  0.071111  0.234111
			-0.978504  0.111142  0.173715
			-0.951900  0.106518  0.287298
			-0.973913  0.020683  0.225977
			-0.991003 -0.036032  0.128902
			-0.930790 -0.305944 -0.200069
			-0.198608 -0.592580 -0.780643
			-0.224029 -0.450746 -0.864083
			-0.058682 -0.602153 -0.796222
			 0.236358 -0.596200 -0.767255
			 0.125819 -0.563031 -0.816802
			-0.122939 -0.671439 -0.730791
			-0.081445 -0.509674 -0.856504
			-0.019929 -0.429893 -0.902660
			 0.287737 -0.606441 -0.741240
			-0.492958 -0.279842 -0.823821
			-0.318736 -0.362306 -0.875866
			-0.945403 -0.193668 -0.262119
			-0.824557 -0.124855 -0.551831
			-0.977516 -0.053766 -0.203893
			-0.998842  0.044382 -0.018545
			-0.992192  0.001914 -0.124702
			-0.967692 -0.033647 -0.249882
			 0.334643 -0.558614 -0.758923
			 0.416718 -0.568210 -0.709566
			 0.557152 -0.578431 -0.595818
			 0.938605 -0.321444 -0.125278
			 0.725856 -0.462155 -0.509457
			 0.859387 -0.346972 -0.375585
			 0.027887 -0.039160  0.998844
			 0.814187 -0.565802  0.130260
			 0.939534 -0.221174  0.261453
			 0.903568 -0.428442 -0.001734
			 0.291674 -0.075815  0.953508
			 0.504320 -0.094468  0.858334
			 0.714182 -0.561117  0.418439
			 0.709662 -0.339149  0.617542
			 0.296975 -0.023209  0.954603
			 0.136934  0.143101  0.980189
			-0.095290 -0.048409  0.994272
			-0.001123 -0.013582  0.999907
			-0.008730 -0.003955  0.999954
			-0.800526 -0.519976 -0.297965
			-0.787336 -0.509912 -0.346542
			-0.921370 -0.353256 -0.162134
			-0.974012 -0.188454  0.125643
			-0.831658 -0.109139  0.544457
			-0.847238 -0.199279  0.492418
			-0.595885 -0.058491  0.800937
			-0.257061  0.085779  0.962581
			-0.471561 -0.072537  0.878845
			-0.095020  0.088723  0.991514
			-0.008540 -0.013619  0.999871
			-0.086248  0.018212  0.996107
			 0.877144 -0.071674  0.474848
			 0.934460 -0.126812  0.332721
			 0.816911 -0.060637  0.573567
			 0.972838 -0.224590 -0.056080
			 0.982545 -0.181615  0.040258
			 0.977412 -0.170630  0.124703
			 0.851697 -0.098808  0.514635
			-0.112400  0.009906  0.993614
			 0.029641  0.075264  0.996723
			 0.020215  0.124979  0.991953
			-0.994264 -0.105722 -0.016169
			-0.975866 -0.163124 -0.145177
			-0.972719  0.102967  0.207882
			-0.997694  0.066101 -0.015393
			-0.977994  0.157866  0.136401
			-0.993185 -0.067438 -0.095056
			-0.991620  0.128915 -0.008434
			-0.812413 -0.390904 -0.432642
			-0.916421 -0.215424 -0.337290
			-0.106892 -0.375209 -0.920756
			-0.166287 -0.330124 -0.929175
			 0.001671 -0.492498 -0.870312
			 0.269408 -0.506896 -0.818826
			 0.222503 -0.522990 -0.822784
			 0.162657 -0.476027 -0.864257
			 0.109220 -0.387456 -0.915396
			-0.081080 -0.234496 -0.968730
			 0.013934 -0.319960 -0.947329
			-0.257678 -0.230352 -0.938371
			-0.509759 -0.177937 -0.841715
			-0.346539 -0.167235 -0.923008
			-0.548867 -0.051179 -0.834341
			-0.786910  0.001767 -0.617066
			-0.946822  0.018673 -0.321216
			 0.373037 -0.492894 -0.786065
			 0.440661 -0.437582 -0.783798
			 0.939232 -0.270607 -0.211222
			 0.684373 -0.377328 -0.623905
			 0.923365 -0.261244 -0.281333
			 0.754793 -0.271242 -0.597257
			 0.869449 -0.469414 -0.153977
			 0.843248 -0.537465  0.008015
			 0.862443 -0.053798  0.503286
			 0.945596 -0.324385 -0.024974
			 0.937627 -0.267447  0.222100
			 0.893031 -0.144576  0.426139
			 0.389643  0.018421  0.920782
			 0.754661 -0.081255  0.651064
			 0.631051  0.058083  0.773563
			 0.559653  0.145694  0.815820
			 0.896296 -0.395911  0.199771
			 0.787751 -0.554028  0.269262
			 0.879241 -0.192849  0.435596
			 0.019725  0.136832  0.990398
			 0.206749  0.185210  0.960704
			-0.001574 -0.010943  0.999939
			 0.008107  0.015922  0.999840
			-0.873731 -0.331246 -0.356189
			-0.808024 -0.325869 -0.490822
			-0.944941 -0.172537 -0.278060
			-0.937420 -0.019334  0.347663
			-0.726518  0.010604  0.687066
			-0.533522  0.072397  0.842682
			-0.151575  0.104526  0.982904
			-0.256790  0.090847  0.962188
			-0.212381  0.060616  0.975305
			-0.150495 -0.002054  0.988609
			 0.977017 -0.150285  0.151169
			 0.929298 -0.083143  0.359852
			 0.978376 -0.198675 -0.057529
			 0.984260 -0.174550 -0.027641
			 0.031188  0.019647  0.999320
			 0.059270  0.054744  0.996740
			 0.057386  0.039587  0.997567
			-0.937761 -0.206730 -0.279048
			-0.980390  0.154065  0.122878
			-0.982931  0.164484 -0.082406
			-0.932034 -0.065807 -0.356344
			-0.997366 -0.011869 -0.071556
			-0.958825  0.044114 -0.280549
			-0.934325  0.311072 -0.173985
			-0.856006  0.358613 -0.372359
			-0.984160  0.053997 -0.168856
			-0.938166  0.184292 -0.293053
			-0.836946 -0.283544 -0.468107
			 0.245077 -0.408807 -0.879099
			 0.310321 -0.395106 -0.864634
			 0.132080 -0.283278 -0.949899
			 0.262119 -0.281912 -0.922941
			 0.058394 -0.204994 -0.977020
			 0.031964 -0.126443 -0.991459
			-0.027677 -0.077361 -0.996619
			-0.201492 -0.101070 -0.974262
			-0.273564 -0.057869 -0.960112
			-0.443833 -0.039986 -0.895217
			-0.754093 -0.045222 -0.655209
			-0.736285 -0.035493 -0.675741
			-0.766012  0.115466 -0.632371
			-0.749831  0.251275 -0.612057
			 0.351044 -0.304895 -0.885329
			 0.519426 -0.309801 -0.796380
			 0.822600 -0.232209 -0.519046
			 0.961779 -0.211382 -0.174067
			 0.469139 -0.190653 -0.862299
			 0.842790 -0.484773 -0.233882
			 0.957458 -0.285770 -0.040114
			 0.879026 -0.396941 -0.264105
			 0.948920 -0.312429 -0.044037
			 0.864643 -0.439148 -0.244011
			 0.882134 -0.170186  0.439177
			 0.940636 -0.250308  0.229235
			 0.740864  0.157450  0.652940
			 0.866747  0.046349  0.496590
			 0.944650  0.012170  0.327853
			 0.985629 -0.153822  0.069815
			 0.284382  0.147794  0.947251
			 0.838571  0.209833  0.502761
			 0.800096  0.208318  0.562539
			 0.645901  0.152912  0.747950
			 0.121545  0.080920  0.989282
			 0.017855  0.010538  0.999785
			-0.045799 -0.012835  0.998868
			-0.103983 -0.000517  0.994579
			 0.042729 -0.009282  0.999044
			-0.999470 -0.021390  0.024536
			-0.863881 -0.187883 -0.467342
			-0.842474 -0.051704 -0.536251
			-0.943542  0.038801 -0.328973
			-0.794717  0.089864  0.600292
			-0.971055  0.124860  0.203623
			-0.677512  0.094173  0.729458
			-0.496177  0.099102  0.862547
			-0.271583  0.032670  0.961861
			-0.447276  0.151583  0.881457
			-0.402325  0.101490  0.909854
			-0.322137  0.009361  0.946647
			 0.993482 -0.113688  0.008227
			 0.908941 -0.123312  0.398272
			 0.947443  0.018864  0.319369
			 0.997278  0.031344  0.066734
			 0.946233 -0.198708 -0.255261
			 0.935519 -0.148800 -0.320412
			 0.092934  0.003390  0.995667
			 0.115024  0.038571  0.992614
			-0.834713  0.300394 -0.461538
			-0.850644  0.038278 -0.524347
			-0.984824  0.104902 -0.138267
			-0.862263  0.096074 -0.497264
			-0.928013  0.088999 -0.361761
			-0.966566  0.148095 -0.209327
			-0.947663  0.137244 -0.288268
			-0.910165  0.357807 -0.208745
			-0.864393  0.317190 -0.390148
			-0.910150  0.352838 -0.217099
			-0.867194  0.347275 -0.356896
			-0.851841  0.267920 -0.450096
			-0.966201  0.124477 -0.225747
			-0.953776  0.206653 -0.218189
			-0.915340  0.246632 -0.318317
			-0.890847  0.237498 -0.387282
			 0.318281 -0.322422 -0.891483
			 0.196845 -0.153164 -0.968397
			 0.337678 -0.177328 -0.924407
			 0.114757 -0.109905 -0.987295
			 0.100240  0.032852 -0.994421
			 0.010630  0.065257 -0.997812
			 0.101473  0.153290 -0.982957
			-0.150329  0.016394 -0.988500
			-0.278798 -0.046613 -0.959218
			-0.526952 -0.056940 -0.847986
			-0.287779  0.030063 -0.957225
			-0.608214  0.040911 -0.792718
			 0.771724 -0.149271 -0.618192
			 0.604563 -0.173995 -0.777322
			 0.369445 -0.056222 -0.927550
			 0.401702 -0.108476 -0.909323
			 0.301443 -0.067203 -0.951113
			 0.918561 -0.345861  0.191380
			 0.893224 -0.289078 -0.344361
			 0.905699 -0.372925 -0.201587
			 0.898068 -0.242195  0.367171
			 0.951601  0.262259  0.160234
			 0.998975 -0.034108 -0.029751
			 0.988281  0.126060  0.086081
			 0.938999 -0.200687 -0.279296
			 0.373478  0.092242  0.923041
			 0.918187  0.299722  0.259036
			 0.930334  0.229535  0.285995
			 0.827150  0.159845  0.538769
			 0.585093  0.121166  0.801863
			 0.822789  0.125990  0.554206
			 0.402815  0.043397  0.914252
			-0.078474 -0.038332  0.996179
			-0.239455 -0.038742  0.970134
			 0.055738 -0.039778  0.997653
			 0.093049 -0.019879  0.995463
			 0.052198 -0.032118  0.998120
			-0.966600  0.153540 -0.205208
			-0.842955  0.139153 -0.519676
			-0.805023  0.101678  0.584465
			-0.939709  0.164188  0.299981
			-0.971442  0.227968 -0.065813
			-0.776574  0.146742  0.612698
			-0.765162  0.222621  0.604124
			-0.618092  0.190257  0.762735
			-0.567532  0.084784  0.818974
			-0.456209 -0.036713  0.889115
			-0.691422  0.004848  0.722435
			 0.945798 -0.110987 -0.305200
			 0.991395 -0.074075 -0.107930
			 0.971876 -0.001345  0.235490
			 0.937376 -0.217707  0.271900
			 0.986308  0.133215  0.097208
			 0.955025  0.074778 -0.286942
			 0.982819  0.151853 -0.104918
			 0.985827  0.041882 -0.162456
			 0.725165 -0.150829 -0.671853
			 0.848019 -0.151719 -0.507784
			 0.161564 -0.010763  0.986803
			-0.854079  0.168958 -0.491937
			-0.928388  0.111193 -0.354588
			-0.932731  0.233143 -0.275057
			-0.918501  0.164289 -0.359673
			-0.704476  0.434811 -0.560939
			-0.795961  0.393759 -0.459782
			-0.746551  0.329248 -0.578151
			-0.802009  0.266815 -0.534407
			-0.645605  0.302336 -0.701276
			-0.559086  0.208507 -0.802464
			-0.823782  0.161887 -0.543301
			 0.283754 -0.083445 -0.955260
			 0.224618 -0.052316 -0.973042
			 0.312643 -0.109391 -0.943551
			 0.019849  0.237009 -0.971305
			 0.108252 -0.002830 -0.994120
			 0.061419  0.202943 -0.977262
			 0.159262  0.232293 -0.959519
			 0.083571  0.255919 -0.963079
			-0.167820  0.104106 -0.980305
			-0.409620  0.008254 -0.912219
			-0.096954  0.199917 -0.975004
			-0.286519  0.111431 -0.951572
			-0.031895  0.155778 -0.987277
			-0.432059  0.140317 -0.890862
			 0.411825  0.025890 -0.910895
			 0.339168  0.115510 -0.933607
			 0.254207 -0.051855 -0.965759
			 0.427704 -0.145965 -0.892056
			 0.242118 -0.110029 -0.963988
			 0.982692 -0.168343 -0.077315
			 0.926738 -0.316188  0.202934
			 0.964290  0.213142 -0.157209
			 0.916034  0.351677 -0.192888
			 0.930992  0.350289 -0.102725
			 0.984576  0.055428 -0.165942
			 0.939478  0.140004 -0.312698
			 0.961495  0.272157  0.038172
			 0.939375  0.143619  0.311365
			 0.991292  0.130306  0.018976
			 0.764371  0.048005  0.642987
			 0.949409  0.116788  0.291518
			 0.984858  0.120611  0.124528
			 0.444309 -0.011119  0.895804
			 0.202788 -0.015129  0.979106
			-0.126220 -0.040717  0.991166
			-0.034488 -0.029510  0.998969
			-0.250684 -0.048887  0.966834
			 0.162197 -0.035037  0.986136
			 0.071960 -0.064100  0.995346
			-0.897147  0.240900 -0.370264
			-0.901131  0.185631  0.391797
			-0.947351  0.256524  0.191628
			-0.964493  0.260533 -0.043318
			-0.812577  0.216438  0.541177
			-0.932979  0.232320  0.274912
			-0.783989  0.132299  0.606513
			-0.688567 -0.027345  0.724657
			-0.394108 -0.055062  0.917413
			-0.920181  0.021792  0.390886
			-0.962333  0.091618  0.255972
			 0.869381 -0.063178 -0.490086
			 0.953451 -0.035793 -0.299416
			 0.989863 -0.076214  0.119842
			 0.986139  0.061089  0.154264
			 0.951782  0.282138 -0.120457
			 0.939394  0.305339 -0.155908
			 0.967595  0.217156 -0.128851
			 0.940943  0.232258 -0.246339
			 0.799853 -0.012944 -0.600057
			 0.845574  0.184748 -0.500873
			 0.657604 -0.129928 -0.742076
			-0.828029  0.221578 -0.515044
			-0.879321  0.183109 -0.439621
			-0.917314  0.090702 -0.387696
			-0.920234  0.114524 -0.374238
			-0.925431  0.080055 -0.370364
			-0.932597  0.070212 -0.354025
			-0.398366  0.380165 -0.834733
			-0.341567  0.453752 -0.823068
			-0.492125  0.471843 -0.731558
			-0.656806  0.368167 -0.658072
			-0.699375  0.206479 -0.684281
			-0.336463  0.215169 -0.916785
			-0.688337  0.135607 -0.712603
			-0.840803  0.119735 -0.527934
			-0.680974  0.115628 -0.723121
			 0.278332  0.008651 -0.960446
			 0.123628  0.203294 -0.971282
			 0.136514  0.326244 -0.935376
			 0.187470  0.361641 -0.913275
			 0.010759  0.246946 -0.968970
			 0.147072  0.253689 -0.956040
			 0.141997  0.241476 -0.959962
			 0.224045  0.244740 -0.943349
			 0.108412  0.234487 -0.966055
			 0.121104  0.208623 -0.970469
			-0.063103  0.178207 -0.981968
			 0.071535  0.228659 -0.970875
			 0.339287  0.276525 -0.899121
			 0.169904  0.088631 -0.981467
			 0.234406  0.328767 -0.914858
			 0.182139 -0.137223 -0.973651
			 0.148275 -0.047492 -0.987805
			 0.478619 -0.097901 -0.872547
			 0.990828 -0.128222  0.042658
			 0.999847  0.015845  0.007372
			 0.998681  0.046803 -0.021098
			 0.969610  0.153781 -0.190281
			 0.895317  0.321716 -0.308070
			 0.975155  0.179876 -0.129293
			 0.930430  0.261107 -0.257146
			 0.930615  0.255840 -0.261728
			 0.915612  0.293412 -0.274888
			 0.981986  0.152952 -0.110945
			 0.831792  0.021634  0.554666
			 0.978629  0.093051  0.183377
			 0.984556  0.168441  0.047711
			 0.983359  0.174971 -0.048895
			 0.209580 -0.085983  0.974004
			 0.537347 -0.045949  0.842108
			-0.154371 -0.026761  0.987650
			-0.074864 -0.016154  0.997063
			-0.079616 -0.020529  0.996614
			-0.080002 -0.026114  0.996453
			-0.031448 -0.041863  0.998628
			 0.020899 -0.062753  0.997810
			 0.088501 -0.065950  0.993890
			 0.134168 -0.062334  0.988996
			 0.175554 -0.065691  0.982276
			-0.931073  0.261389 -0.254517
			-0.971351  0.231836 -0.052243
			-0.949620  0.176635 -0.258885
			-0.926034  0.170678  0.336644
			-0.888835  0.003906  0.458210
			-0.898697  0.013023  0.438378
			-0.590944 -0.061727  0.804347
			-0.675238 -0.045133  0.736218
			-0.556207 -0.021139  0.830775
			-0.378074  0.001312  0.925775
			-0.991949  0.080171  0.098033
			-0.996256  0.071381  0.048774
			-0.991267  0.123814 -0.045387
			-0.990832  0.084616 -0.105322
			 0.837081  0.354388 -0.416780
			 0.780443  0.486133 -0.393171
			 0.971075  0.222798 -0.085871
			 0.917472  0.323670 -0.231264
			 0.792023  0.405673 -0.456211
			 0.648058  0.512116 -0.563699
			 0.641100  0.175792 -0.747053
			 0.557967  0.099194 -0.823914
			 0.444006  0.333761 -0.831542
			-0.917601  0.141732 -0.371377
			-0.944031  0.082604 -0.319347
			-0.963232  0.110465 -0.244910
			-0.868951  0.113087 -0.481805
			-0.889490  0.091885 -0.447620
			-0.920828  0.069591 -0.383709
			-0.945468  0.062414 -0.319681
			-0.960202  0.076567 -0.268605
			-0.924657  0.070526 -0.374212
			-0.096434  0.298875 -0.949407
			-0.215391  0.422763 -0.880272
			-0.312877  0.427776 -0.848007
			-0.483837  0.363658 -0.796025
			-0.378431  0.172740 -0.909368
			-0.562290  0.111610 -0.819374
			-0.670142  0.132247 -0.730357
			-0.356373  0.140613 -0.923702
			 0.324035  0.337430 -0.883822
			 0.137041  0.207782 -0.968528
			 0.134392  0.154406 -0.978825
			 0.194451  0.110440 -0.974675
			 0.162100  0.198374 -0.966629
			 0.097217  0.234991 -0.967124
			-0.057425  0.308891 -0.949362
			 0.094802  0.012657 -0.995416
			 0.110150  0.254179 -0.960864
			-0.019556  0.087632 -0.995961
			 0.131113 -0.113835 -0.984810
			-0.004965 -0.019512 -0.999797
			 0.155916  0.067483 -0.985462
			 0.942661  0.310249 -0.123031
			 0.940743  0.266858 -0.209261
			 0.960289  0.174762 -0.217493
			 0.905995  0.286134 -0.311929
			 0.709810  0.012666  0.704279
			 0.993255  0.081693  0.082289
			 0.929816  0.085096  0.358052
			 0.980847  0.151528 -0.122390
			 0.966921  0.138050 -0.214490
			 0.933117  0.193125 -0.303309
			 0.232329 -0.063944  0.970533
			 0.772574  0.045115  0.633320
			 0.696360  0.024665  0.717269
			 0.384598 -0.022173  0.922818
			-0.100618 -0.030454  0.994459
			-0.344488 -0.066805  0.936411
			-0.088034 -0.016529  0.995980
			-0.093664 -0.008596  0.995567
			-0.064951 -0.011933  0.997817
			 0.044567 -0.054947  0.997494
			-0.075356 -0.036095  0.996503
			 0.213095 -0.040573  0.976189
			 0.346772 -0.036000  0.937258
			-0.993313  0.063997  0.096087
			-0.948442 -0.015397  0.316577
			-0.994189  0.024821  0.104751
			-0.824259  0.017339  0.565948
			-0.524023 -0.063389  0.849342
			-0.981094  0.109929 -0.159280
			-0.989363  0.088283 -0.115618
			 0.493961  0.499908 -0.711403
			 0.530702  0.391539 -0.751700
			 0.414682  0.560646 -0.716739
			 0.831868  0.433563 -0.346437
			 0.904034  0.371845 -0.210838
			 0.748977  0.445433 -0.490534
			 0.650038  0.468859 -0.598015
			 0.606015  0.503069 -0.616172
			 0.447751  0.497628 -0.742890
			 0.381817  0.516430 -0.766496
			 0.208142  0.266872 -0.940987
			 0.171962  0.370869 -0.912626
			-0.014085  0.191008 -0.981487
			-0.801377  0.101195 -0.589537
			-0.833250  0.102735 -0.543269
			-0.916078  0.081825 -0.392562
			-0.874607  0.109838 -0.472227
			-0.976453  0.060673 -0.207021
			-0.946311  0.056278 -0.318321
			-0.923015  0.041804 -0.382487
			-0.879378  0.092514 -0.467049
			-0.302898  0.323374 -0.896483
			-0.051172  0.155145 -0.986565
			-0.060115  0.236235 -0.969835
			-0.028504  0.204610 -0.978429
			-0.301789  0.201763 -0.931780
			-0.669832  0.126958 -0.731578
			-0.306252  0.273127 -0.911927
			 0.046133  0.253858 -0.966141
			 0.067095  0.180447 -0.981294
			 0.080953  0.191944 -0.978061
			 0.047994  0.189183 -0.980768
			 0.134781  0.189678 -0.972551
			-0.050423  0.058672 -0.997003
			-0.006123  0.050973 -0.998681
			 0.754832  0.305240 -0.580566
			 0.851873  0.276424 -0.444861
			 0.807572  0.239734 -0.538846
			 0.990215  0.129238 -0.052656
			 0.940662  0.070114  0.332024
			 0.988463  0.118815 -0.093935
			 0.946202  0.161775 -0.280233
			 0.925479  0.163310 -0.341786
			 0.925935  0.173793 -0.335323
			 0.850920  0.251710 -0.461061
			 0.864054  0.255582 -0.433692
			 0.868612  0.230101 -0.438824
			 0.914901  0.172266 -0.365076
			 0.855046  0.237660 -0.460883
			 0.872267  0.073966  0.483403
			 0.655122  0.038102  0.754562
			-0.163124 -0.055979  0.985016
			-0.342654 -0.074594  0.936496
			-0.519480 -0.126634  0.845047
			-0.075001 -0.031054  0.996700
			-0.023883 -0.043540  0.998766
			-0.095134 -0.046637  0.994371
			-0.034452 -0.054798  0.997903
			-0.021706 -0.052647  0.998377
			 0.428700 -0.001672  0.903445
			 0.136048 -0.037447  0.989994
			 0.490289  0.012878  0.871465
			 0.561762  0.018296  0.827097
			-0.991645  0.017886 -0.127754
			-0.984157  0.066033  0.164544
			-0.992708  0.033218  0.115876
			-0.997387  0.063511 -0.034422
			-0.830124 -0.000713  0.557579
			-0.958614  0.084154  0.271989
			 0.159604  0.431351 -0.887954
			 0.225072  0.441578 -0.868534
			 0.604279  0.413812 -0.680887
			 0.499034  0.485708 -0.717672
			 0.228085  0.451671 -0.862537
			 0.353385  0.395665 -0.847684
			 0.065895  0.327854 -0.942428
			 0.135067  0.296471 -0.945443