<?xml version="1.0"?>
<VTKFile type="PolyData" version="0.1" byte_order="LittleEndian" compressor="vtkZLibDataCompressor">
	<PolyData>
		<Piece NumberOfPoints="1631" NumberOfVerts="0" NumberOfLines="0" NumberOfStrips="0" NumberOfPolys="3275">
		<PointData Normals="Normals">
		<DataArray type="Float32" Name="Normals" NumberOfComponents="3" format="ascii">
			 0.539080  0.619089  0.571071
			 0.371216  0.543837  0.752622
			 0.285619  0.506952  0.813278
			 0.469695  0.570892  0.673401
			 0.255830  0.624952  0.737554
			 0.463496  0.611786  0.641006
			 0.449306  0.708129  0.544680
			 0.493325  0.594037  0.635413
			 0.048494  0.657171  0.752180
			-0.001760  0.547695  0.836676
			-0.124610  0.382746  0.915411
			 0.024721  0.521796  0.852712
			 0.157577  0.383673  0.909926
			-0.209657  0.258769  0.942912
			 0.309236  0.274634  0.910467
			 0.366429  0.568326  0.736706
			-0.155597  0.523732  0.837553
			-0.223890  0.419775  0.879581
			 0.098030  0.639352  0.762640
			 0.438180  0.650544  0.620316
			 0.302851  0.867599  0.394403
			 0.058856  0.847682  0.527230
			-0.099726  0.699952  0.707193
			 0.115446  0.574465  0.810347
			-0.187221  0.600177  0.777648
			-0.311662  0.461748  0.830455
			-0.212462  0.640045  0.738378
			-0.495014  0.217147  0.841314
			-0.427858  0.352803  0.832146
			-0.082067  0.104328  0.991151
			-0.493690  0.063621  0.867307
			-0.095007  0.009369  0.995433
			 0.148971  0.069253  0.986413
			 0.155243  0.263109  0.952194
			-0.189969  0.499093  0.845469
			-0.449763  0.422159  0.787080
			-0.506493  0.441994  0.740342
			 0.108524  0.678890  0.726175
			 0.211445  0.790625  0.574633
			 0.150111  0.974419  0.167255
			-0.055291  0.927574  0.369526
			 0.078496  0.995745 -0.048271
			-0.385932  0.765015  0.515567
			-0.786791  0.477586  0.390989
			-0.546103  0.462882  0.698220
			-0.409465  0.601883  0.685620
			-0.145584  0.734792  0.662485
			-0.326160  0.696746  0.638877
			-0.090481  0.753217  0.651520
			-0.667740  0.136048  0.731856
			-0.772892  0.192769  0.604548
			-0.675388  0.016380  0.737280
			-0.486627 -0.012194  0.873525
			 0.085223  0.000092  0.996362
			-0.213242 -0.063941  0.974905
			-0.002483 -0.083419  0.996511
			-0.049491  0.044598  0.997778
			-0.203637  0.276791  0.939105
			-0.437611  0.267695  0.858391
			-0.587944  0.481610  0.649903
			-0.521718  0.327424  0.787784
			-0.299392  0.863508  0.405855
			-0.169741  0.811192 -0.559602
			-0.432986  0.856301  0.281552
			 0.432823  0.687120 -0.583550
			-0.304022  0.947176 -0.102121
			-0.911010  0.177615  0.372174
			-0.925094  0.331734  0.184809
			-0.777274  0.617906  0.118476
			-0.376993  0.646960  0.662812
			-0.322303  0.630285  0.706302
			-0.393072  0.629051  0.670663
			-0.270262  0.760746  0.590105
			-0.122417  0.897376  0.423946
			-0.339782  0.726355  0.597458
			-0.242462  0.822837  0.513957
			-0.269135  0.799571  0.536892
			-0.514432  0.649279  0.560176
			 0.045976  0.885871  0.461649
			-0.032289  0.793946  0.607131
			-0.772563  0.096369  0.627582
			-0.857413  0.134377  0.496776
			-0.855474  0.132545  0.500596
			-0.649604  0.015266  0.760119
			-0.714433  0.019785  0.699424
			-0.652745  0.008425  0.757531
			-0.254419 -0.044748  0.966058
			-0.433931 -0.059848  0.898956
			-0.601643 -0.012509  0.798667
			 0.035609  0.008423  0.999330
			-0.096225 -0.031658  0.994856
			-0.040264 -0.043042  0.998262
			-0.129934 -0.004024  0.991514
			-0.243921  0.103957  0.964207
			-0.345496  0.112335  0.931672
			-0.399201  0.559427  0.726416
			-0.349356  0.274668  0.895828
			-0.751678  0.625181  0.210067
			 0.207523  0.659461 -0.722527
			-0.788487  0.610453  0.075074
			 0.197883  0.967789  0.155652
			-0.144104  0.844627 -0.515596
			-0.718522  0.666592 -0.198445
			-0.957393  0.208747  0.199558
			-0.931193  0.362255 -0.040634
			-0.853517  0.475042 -0.214113
			-0.194282  0.596574  0.778687
			-0.227924  0.629850  0.742522
			-0.318451  0.699294  0.639982
			-0.099577  0.620655  0.777735
			-0.098121  0.785292  0.611301
			-0.048710  0.991308  0.122212
			 0.016846  0.990200  0.138639
			-0.090586  0.960200  0.264216
			 0.127607  0.971915  0.197730
			-0.076739  0.855463  0.512147
			-0.060210  0.932838  0.355230
			-0.525825  0.629083  0.572506
			-0.685016  0.501200  0.528726
			 0.062627  0.940502  0.333967
			-0.388616  0.816362  0.427236
			-0.957598  0.285148  0.041187
			-0.855133  0.008925  0.518331
			-0.938329  0.255896  0.232501
			-0.964642  0.111247  0.238935
			-0.952812  0.024640  0.302559
			-0.755379 -0.034107  0.654400
			-0.691376 -0.051195  0.720679
			-0.126488 -0.013079  0.991882
			-0.237123 -0.038670  0.970710
			-0.662935 -0.132547  0.736850
			-0.507465 -0.073201  0.858557
			 0.001929  0.027627  0.999616
			 0.036037  0.052629  0.997964
			-0.035881  0.026140  0.999014
			 0.007630 -0.059193  0.998217
			-0.062192 -0.124821  0.990228
			-0.132197 -0.071572  0.988636
			-0.112326  0.031783  0.993163
			-0.117613 -0.031759  0.992552
			-0.127086  0.497741  0.857964
			 0.123709  0.132795  0.983393
			-0.187293 -0.001148  0.982304
			-0.603979  0.540426  0.585789
			-0.424221  0.904848  0.035865
			-0.715733  0.620188 -0.321081
			-0.956076  0.248230 -0.155886
			-0.939131  0.266457 -0.216874
			 0.181050  0.494123  0.850332
			 0.106197  0.404315  0.908433
			 0.497513  0.516372  0.697023
			 0.251394  0.683177  0.685617
			 0.325522  0.775425  0.541065
			 0.262468  0.858064  0.441403
			 0.041746  0.987926 -0.149200
			-0.050857  0.998099  0.034814
			 0.213448  0.968838 -0.125670
			 0.117430  0.975344 -0.186853
			 0.020277  0.994957  0.098229
			 0.103908  0.991045  0.083864
			 0.195823  0.947766  0.251778
			-0.737612  0.587668  0.332528
			-0.726480  0.553151  0.407739
			-0.506399  0.856623  0.098777
			-0.849037  0.528213 -0.011263
			-0.917974  0.396504 -0.010375
			-0.906014  0.344054 -0.246505
			-0.905545 -0.072753  0.417966
			-0.966914 -0.059314  0.248111
			-0.986388  0.164162  0.009458
			-0.943494  0.313667 -0.106920
			-0.998234 -0.021998  0.055180
			-0.827223 -0.136898  0.544941
			-0.776998 -0.175266  0.604612
			-0.724996 -0.128148  0.676727
			-0.116639 -0.035799  0.992529
			-0.356440 -0.027533  0.933913
			 0.012728 -0.040079  0.999116
			-0.270575 -0.012252  0.962621
			-0.115559 -0.005739  0.993284
			-0.078627 -0.005635  0.996888
			-0.710941 -0.148228  0.687452
			-0.775740 -0.275009  0.567977
			-0.767799 -0.262489  0.584452
			-0.658269 -0.100255  0.746077
			-0.436916 -0.035605  0.898797
			 0.057296  0.003253  0.998352
			 0.146132 -0.140445  0.979245
			 0.163960 -0.205725  0.964777
			 0.182970 -0.192709  0.964046
			 0.161376 -0.216395  0.962877
			 0.230604 -0.182232  0.955831
			 0.263624 -0.137181  0.954821
			 0.225642 -0.107502  0.968261
			 0.196905 -0.117443  0.973363
			 0.335619 -0.232785  0.912782
			 0.352240 -0.006656  0.935886
			 0.417554 -0.144872  0.897029
			-0.706568  0.583700  0.400070
			-0.637857  0.736272 -0.225927
			-0.793888  0.608037 -0.005711
			-0.677538  0.709299 -0.194516
			-0.891739  0.365838 -0.266390
			 0.359005  0.227937  0.905075
			 0.607309  0.348266  0.714063
			 0.632577  0.220729  0.742378
			 0.617238  0.506918  0.601707
			 0.665842  0.438040  0.603966
			 0.855576  0.171163  0.488562
			 0.749957  0.232510  0.619277
			 0.843207  0.347732  0.409981
			 0.605105  0.575448  0.550189
			 0.751449  0.539652  0.379605
			 0.617573  0.723205  0.309157
			 0.004501  0.983721 -0.179646
			 0.015182  0.868642 -0.495208
			 0.110851  0.920762 -0.374045
			 0.045991  0.997340 -0.056550
			 0.055697  0.962167 -0.266706
			 0.067050  0.877096 -0.475612
			 0.182996  0.895342 -0.406048
			 0.232854  0.922050 -0.309196
			 0.305567  0.879607 -0.364584
			 0.156000  0.987062  0.037045
			-0.463603  0.857074 -0.224714
			 0.619534  0.757075  0.207402
			-0.835422  0.536080 -0.121192
			-0.857997  0.461289 -0.225951
			-0.881700  0.390956 -0.264118
			-0.779565  0.488449 -0.392042
			-0.871349  0.437459 -0.222216
			-0.915338  0.305619 -0.262208
			-0.900870  0.314896 -0.298787
			-0.856421  0.252751 -0.450177
			-0.825853  0.243678 -0.508515
			-0.959274 -0.206771  0.192456
			-0.979184 -0.156446  0.129316
			-0.972791  0.123515 -0.196014
			-0.995842 -0.067283 -0.061414
			-0.974832 -0.222689 -0.010575
			-0.896330 -0.299353  0.327079
			 0.220417 -0.087336  0.971488
			 0.178513 -0.007307  0.983910
			-0.176592  0.015382  0.984164
			-0.813344 -0.171027  0.556077
			-0.827081 -0.215699  0.519049
			-0.814830 -0.120980  0.566936
			-0.846458 -0.383620  0.369248
			-0.922296 -0.268908  0.277594
			-0.721817 -0.091168  0.686053
			-0.594472 -0.022369  0.803805
			-0.094028  0.048609  0.994382
			-0.079817  0.037643  0.996099
			-0.278095  0.023811  0.960258
			 0.100153 -0.118368  0.987906
			 0.285287 -0.139015  0.948307
			 0.307955 -0.235557  0.921779
			 0.280855 -0.232369  0.931196
			 0.339431 -0.243997  0.908434
			 0.335938 -0.246798  0.908976
			 0.422852 -0.133556  0.896303
			 0.394745 -0.089195  0.914451
			 0.418689 -0.209011  0.883750
			 0.493561 -0.185379  0.849725
			 0.321398 -0.216770  0.921799
			 0.540146  0.003871  0.841562
			 0.684491 -0.057648  0.726738
			-0.686551  0.626529 -0.368929
			-0.791639  0.519928 -0.320908
			 0.842830  0.139683  0.519737
			 0.833710  0.355794  0.422300
			 0.918951  0.190601  0.345254
			 0.915586  0.099073  0.389727
			 0.949100  0.087746  0.302505
			 0.878315  0.414418  0.238372
			 0.917271  0.275812  0.287301
			 0.182169  0.962967 -0.198768
			 0.005071  0.921413 -0.388552
			 0.203063  0.863191 -0.462241
			-0.045691  0.793439 -0.606932
			 0.110115  0.714539 -0.690875
			 0.180748  0.850422 -0.494078
			 0.125493  0.715616 -0.687128
			 0.163214  0.708519 -0.686558
			-0.395906  0.725077 -0.563490
			-0.340274  0.615728 -0.710698
			-0.069573  0.672186 -0.737107
			 0.243587  0.858572 -0.451131
			 0.187318  0.794919 -0.577075
			 0.377559  0.817735 -0.434465
			 0.293226  0.678767 -0.673271
			 0.624263  0.780689  0.028641
			-0.714577  0.516803 -0.471480
			 0.910198  0.382507  0.158834
			-0.772411  0.431805 -0.465754
			-0.802570  0.328938 -0.497675
			-0.832078  0.306290 -0.462420
			-0.917617  0.134200 -0.374126
			-0.811445  0.228617 -0.537859
			-0.718307  0.132690 -0.682956
			-0.836704 -0.055366 -0.544849
			-0.711749  0.290791 -0.639417
			-0.608541  0.086475 -0.788797
			-0.701396  0.154317 -0.695866
			-0.940986 -0.336699 -0.034323
			-0.923306 -0.379758  0.057356
			-0.940446 -0.339910  0.004792
			-0.952236 -0.086224 -0.292938
			-0.953383 -0.261130 -0.151237
			-0.875353 -0.436350 -0.208223
			 0.096157  0.059226  0.993603
			 0.351247 -0.021033  0.936047
			 0.359902  0.063677  0.930814
			-0.874375 -0.270702  0.402726
			-0.941040 -0.240961  0.237449
			-0.938691 -0.165365  0.302511
			-0.865486 -0.106731  0.489431
			-0.912201 -0.404730 -0.063899
			-0.948252 -0.283648 -0.142693
			-0.777205 -0.057251  0.626638
			-0.574432  0.013299  0.818444
			-0.707320 -0.014570  0.706743
			 0.157998  0.115942  0.980609
			 0.287611  0.073414  0.954929
			-0.437876  0.009152  0.898989
			-0.221555  0.017588  0.974989
			 0.112610  0.088897  0.989655
			 0.314458 -0.151636  0.937082
			 0.300306 -0.220747  0.927948
			 0.466715 -0.270872  0.841906
			 0.413016 -0.220156  0.883713
			 0.425043 -0.273433  0.862886
			 0.379984 -0.222498  0.897834
			 0.417009 -0.067850  0.906366
			 0.442412 -0.195035  0.875348
			 0.453575 -0.103809  0.885152
			 0.607371 -0.198969  0.769099
			 0.732984 -0.151884  0.663073
			 0.521183 -0.284509  0.804626
			 0.439491 -0.262986  0.858887
			 0.854817 -0.009247  0.518847
			-0.580470  0.524929 -0.622499
			-0.692105  0.523807 -0.496605
			 0.967473  0.164378  0.192290
			 0.961851  0.084176  0.260300
			 0.970932  0.094601  0.219867
			 0.910083  0.088457  0.404876
			 0.961102  0.130899  0.243205
			 0.676717  0.713874 -0.180105
			 0.203629  0.786103 -0.583590
			 0.730074  0.608330 -0.311332
			 0.446815  0.397941 -0.801249
			 0.297716  0.520659 -0.800175
			 0.417762  0.643727 -0.641163
			 0.138272  0.450726 -0.881888
			 0.129800  0.525047 -0.841117
			 0.230916  0.473270 -0.850114
			 0.113254  0.408135 -0.905869
			-0.627920  0.314659 -0.711833
			-0.391852  0.355797 -0.848446
			-0.121280  0.512308 -0.850195
			-0.402987  0.261038 -0.877189
			 0.128971  0.623821 -0.770853
			 0.020102  0.261592 -0.964969
			 0.070147  0.369835 -0.926445
			 0.909892  0.414508  0.016740
			 0.983978  0.170636  0.051681
			-0.533966  0.235468 -0.812056
			-0.557644  0.050894 -0.828518
			-0.527753 -0.153574 -0.835399
			-0.674203 -0.106415 -0.730839
			-0.794553 -0.342373 -0.501464
			-0.593790 -0.405611 -0.694905
			-0.563485  0.198452 -0.801936
			-0.476918  0.336072 -0.812160
			-0.356059  0.127020 -0.925790
			-0.308969  0.018020 -0.950901
			-0.392786 -0.126320 -0.910913
			-0.888028 -0.447412 -0.105969
			-0.884909 -0.321230 -0.337264
			-0.869733 -0.412967 -0.270226
			-0.740571 -0.495183 -0.454256
			-0.794380 -0.415882 -0.442722
			 0.321216 -0.115572  0.939927
			 0.396398 -0.029760  0.917596
			 0.418494  0.084429  0.904287
			 0.457536  0.080007  0.885585
			-0.932552 -0.332964  0.139577
			-0.967032 -0.243290 -0.075220
			-0.984102 -0.122430  0.128665
			-0.886546 -0.104455  0.450695
			-0.851468 -0.317297 -0.417523
			-0.868533 -0.284458 -0.405873
			-0.867587 -0.075435  0.491530
			-0.824349 -0.030125  0.565280
			-0.790629 -0.005593  0.612269
			-0.633250  0.017412  0.773752
			 0.364405  0.161849  0.917068
			 0.461007  0.138929  0.876454
			 0.452389  0.079589  0.888262
			-0.297272  0.002234  0.954790
			-0.189372  0.031468  0.981401
			-0.581682  0.020122  0.813168
			-0.445796 -0.001872  0.895133
			 0.187983  0.101529  0.976911
			 0.362658  0.149110  0.919916
			 0.457181  0.145565  0.877380
			 0.588380 -0.247358  0.769820
			 0.577683 -0.297915  0.759953
			 0.589709 -0.249805  0.768011
			 0.628031 -0.178601  0.757416
			 0.522926 -0.125696  0.843059
			 0.534080 -0.292023  0.793398
			 0.634674 -0.268989  0.724455
			 0.472387 -0.262082  0.841524
			 0.622895 -0.158116  0.766160
			 0.659631 -0.294594  0.691449
			 0.795822 -0.093913  0.598204
			 0.777588 -0.272638  0.566591
			 0.681532 -0.280908  0.675726
			 0.982725  0.128466  0.133219
			 0.944041  0.178548  0.277323
			 0.967999  0.079229  0.238120
			 0.946391  0.005997  0.322966
			 0.915144 -0.105139  0.389176
			 0.982237  0.132723  0.132645
			 0.943120  0.331585 -0.024021
			 0.885503  0.456048 -0.088912
			 0.796468  0.289070 -0.531109
			 0.939008  0.259518 -0.225641
			 0.679220  0.062920 -0.731233
			 0.487128  0.220687 -0.844988
			 0.123774  0.270137 -0.954833
			 0.047095  0.166690 -0.984884
			 0.327797  0.200852 -0.923151
			-0.162095  0.265410 -0.950412
			-0.352372  0.200787 -0.914067
			-0.060072  0.048813 -0.997000
			-0.153506  0.051902 -0.986784
			 0.988350  0.135982 -0.068360
			 0.935333  0.072960 -0.346163
			 0.982330  0.168832  0.080770
			 0.982758  0.112504 -0.146730
			-0.360481  0.011338 -0.932697
			-0.318458  0.108244 -0.941737
			-0.416624 -0.397400 -0.817617
			-0.603804 -0.529475 -0.595883
			-0.457726 -0.434709 -0.775574
			-0.547802 -0.508744 -0.664148
			-0.277075 -0.132980 -0.951602
			-0.265682 -0.065539 -0.961830
			-0.297025 -0.307521 -0.903995
			-0.649841 -0.460550 -0.604649
			-0.740573 -0.309419 -0.596499
			-0.750415 -0.355303 -0.557348
			 0.533631  0.047701  0.844371
			 0.553078 -0.068084  0.830343
			 0.501177  0.126219  0.856090
			-0.968760 -0.190315 -0.159011
			-0.875295 -0.228670 -0.426109
			-0.955989 -0.102746  0.274825
			-0.993413 -0.110889  0.028882
			-0.988034 -0.151478 -0.029048
			-0.958504 -0.105396 -0.264880
			-0.920158 -0.145503 -0.363509
			-0.802996 -0.317307 -0.504494
			-0.957014 -0.066850  0.282234
			-0.895522 -0.043706  0.442866
			-0.791930 -0.000542  0.610611
			-0.925958 -0.057098  0.373286
			 0.517208  0.088150  0.851308
			 0.530752  0.134181  0.836838
			-0.053499  0.049918  0.997319
			-0.199827  0.010501  0.979775
			-0.756654 -0.005905  0.653789
			-0.493884 -0.010282  0.869467
			 0.447093  0.137457  0.883863
			 0.158887  0.085819  0.983560
			 0.419616  0.148547  0.895464
			 0.514803  0.150551  0.843986
			 0.546157  0.129221  0.827656
			 0.712823 -0.251365  0.654751
			 0.781540 -0.198467  0.591443
			 0.680096 -0.284329  0.675741
			 0.641172 -0.240636  0.728693
			 0.724612 -0.242719  0.645000
			 0.662207 -0.185780  0.725926
			 0.662123 -0.119009  0.739885
			 0.681205 -0.056743  0.729890
			 0.929334 -0.208494  0.304743
			 0.787880 -0.256932  0.559671
			 0.986740  0.031280  0.159267
			 0.992090 -0.081178  0.095747
			 0.990429 -0.127494  0.052879
			 0.979805 -0.117534  0.161767
			 0.982783 -0.130326  0.130969
			 0.996148  0.079252  0.037514
			 0.996998 -0.073532 -0.024245
			 0.902197  0.052961 -0.428061
			 0.880070 -0.061192 -0.470886
			 0.566563  0.043552 -0.822867
			 0.268435  0.127130 -0.954872
			 0.133067  0.215090 -0.967486
			-0.288792 -0.028165 -0.956978
			-0.105595 -0.021342 -0.994180
			 0.001956  0.035103 -0.999382
			 0.230104  0.068217 -0.970772
			-0.197701 -0.014660 -0.980153
			 0.893738  0.031361 -0.447492
			 0.987234  0.136525 -0.082038
			 0.770186 -0.127788 -0.624887
			 0.843191 -0.102590 -0.527735
			 0.995789  0.090290 -0.015900
			-0.274400 -0.388436 -0.879672
			-0.559170 -0.440361 -0.702433
			-0.314125 -0.360441 -0.878298
			-0.432651 -0.335060 -0.836988
			-0.217778  0.022227 -0.975745
			-0.152034 -0.062201 -0.986416
			-0.136577 -0.246441 -0.959486
			-0.182864 -0.330994 -0.925745
			-0.549747 -0.394857 -0.736116
			-0.627424 -0.356804 -0.692120
			-0.743406 -0.253374 -0.618990
			-0.601067 -0.275912 -0.750061
			 0.586951  0.058337  0.807518
			-0.902747 -0.096355 -0.419241
			-0.815404 -0.134955 -0.562941
			-0.994543 -0.102625  0.018780
			-0.769919 -0.103241 -0.629735
			-0.903183 -0.088457 -0.420042
			-0.968536 -0.110092 -0.223200
			-0.711054 -0.094841 -0.696712
			-0.981530 -0.090953  0.168305
			-0.912572 -0.016220  0.408594
			-0.867447  0.003136  0.497520
			-0.994168 -0.089240  0.060551
			-0.975121 -0.068456  0.210839
			 0.556367  0.107213  0.823991
			 0.117682  0.077262  0.990041
			 0.275737  0.122139  0.953442
			-0.371429 -0.009876  0.928409
			-0.274742 -0.001219  0.961517
			-0.684307 -0.033780  0.728411
			-0.887900 -0.031948  0.458926
			-0.498391 -0.029994  0.866433
			 0.578689  0.132601  0.804696
			 0.554866  0.154164  0.817532
			 0.648168  0.076634  0.757632
			 0.887962 -0.209504  0.409428
			 0.844377 -0.283792  0.454411
			 0.992618 -0.121233 -0.003411
			 0.964597 -0.259708 -0.045877
			 0.740806 -0.255790  0.621111
			 0.847381 -0.325925  0.419187
			 0.682873 -0.121587  0.720348
			 0.788800 -0.159625  0.593561
			 0.754447 -0.097471  0.649083
			 0.727692  0.017559  0.685679
			 0.759147  0.002033  0.650915
			 0.923474 -0.336988 -0.183399
			 0.980342 -0.197289  0.002598
			 0.964287 -0.222377 -0.143874
			 0.976214 -0.188387 -0.107316
			 0.960081 -0.134370 -0.245334
			 0.964510 -0.170168 -0.201902
			 0.445966  0.072610 -0.892100
			 0.794297 -0.164665 -0.584788
			-0.092727  0.003285 -0.995686
			 0.110298 -0.026939 -0.993533
			 0.420503 -0.071448 -0.904473
			 0.937321 -0.051910 -0.344578
			 0.795315 -0.262717 -0.546309
			 0.829626 -0.223334 -0.511706
			 0.786650 -0.248686 -0.565100
			-0.240098 -0.322949 -0.915455
			-0.200060 -0.403877 -0.892670
			-0.049066 -0.376937 -0.924939
			-0.333274 -0.227116 -0.915067
			-0.539168 -0.306362 -0.784500
			-0.415681 -0.217395 -0.883147
			-0.528900 -0.237744 -0.814704
			 0.027827 -0.063554 -0.997590
			-0.030533 -0.218929 -0.975263
			-0.023220 -0.443466 -0.895991
			 0.087597 -0.475957 -0.875095
			 0.028992 -0.512724 -0.858064
			-0.663002 -0.133966 -0.736533
			-0.609081 -0.215183 -0.763359
			-0.981591 -0.095838 -0.165207
			-0.781108 -0.086243 -0.618411
			-0.604845 -0.083908 -0.791910
			-0.565090 -0.077994 -0.821335
			-0.922831 -0.082682 -0.376226
			-0.583602 -0.108695 -0.804732
			-0.965145 -0.036349  0.259179
			-0.990201 -0.002970  0.139621
			-0.989799 -0.094731 -0.106413
			 0.592741  0.154275  0.790479
			-0.138821  0.032736  0.989776
			 0.220437  0.092708  0.970985
			 0.542186  0.154707  0.825893
			-0.395901 -0.032064  0.917733
			-0.168161 -0.024745  0.985449
			-0.313784 -0.046958  0.948333
			-0.769722 -0.051438  0.636304
			-0.581175 -0.026471  0.813348
			-0.988776 -0.047282  0.141728
			-0.910052 -0.016028  0.414185
			 0.610964  0.116419  0.783052
			 0.674500  0.127281  0.727220
			 0.777651  0.021725  0.628321
			 0.807183  0.018828  0.590001
			 0.753399  0.052324  0.655478
			 0.993049 -0.080694 -0.085684
			 0.980098 -0.144448  0.136171
			 0.938294 -0.227233  0.260709
			 0.936768 -0.345868  0.053301
			 0.956160 -0.287911 -0.053527
			 0.937778 -0.249073  0.241942
			 0.900618 -0.268809  0.341510
			 0.923560 -0.381837 -0.035179
			 0.915148 -0.167042  0.366880
			 0.807812 -0.011410  0.589329
			 0.937805 -0.087296  0.336009
			 0.961222 -0.236067 -0.142567
			 0.946818 -0.100290 -0.305742
			 0.862506 -0.336344 -0.378095
			 0.854830 -0.170563 -0.490075
			 0.905423 -0.207298 -0.370456
			 0.649461 -0.202999 -0.732798
			 0.723702 -0.377644 -0.577617
			 0.751424 -0.374986 -0.542906
			 0.317960 -0.132611 -0.938784
			 0.656845 -0.393221 -0.643376
			 0.748315 -0.291704 -0.595764
			-0.211145 -0.253861 -0.943913
			-0.180137 -0.307530 -0.934332
			 0.299638 -0.520800 -0.799365
			 0.039696 -0.226726 -0.973149
			 0.303079 -0.293838 -0.906533
			-0.217728 -0.178945 -0.959465
			-0.337096 -0.179909 -0.924121
			-0.513532 -0.168894 -0.841284
			 0.202014 -0.287098 -0.936357
			 0.131606 -0.024915 -0.990989
			 0.178511 -0.587033 -0.789636
			 0.250298 -0.545526 -0.799845
			 0.270228 -0.639239 -0.719966
			 0.278946 -0.712851 -0.643453
			-0.808204 -0.069474 -0.584790
			-0.666226 -0.061619 -0.743200
			-0.558737 -0.088857 -0.824571
			-0.449950 -0.073525 -0.890022
			-0.459429 -0.118610 -0.880259
			-0.505913 -0.070611 -0.859690
			-0.512629 -0.059848 -0.856522
			-0.525666 -0.034772 -0.849980
			-0.906647 -0.046426 -0.419327
			-0.511608 -0.139405 -0.847835
			-0.998801 -0.048446  0.007101
			-0.999381  0.005916  0.034681
			-0.987830 -0.018316 -0.154458
			-0.993317  0.001576 -0.115404
			 0.756853  0.125746  0.641375
			 0.747673  0.155700  0.645556
			 0.748968  0.141982  0.647216
			 0.253686  0.085583  0.963493
			 0.591924  0.128333  0.795712
			-0.297428 -0.039914  0.953909
			-0.499938 -0.034939  0.865356
			-0.387010 -0.043510  0.921049
			-0.657178 -0.030805  0.753105
			-0.085269  0.019433  0.996168
			-0.996633 -0.047280 -0.066981
			 0.000000  0.000000  1.000000
			-0.980780 -0.020376  0.194052
			-0.742073  0.003774  0.670308
			-0.827418 -0.005410  0.561561
			-0.846891 -0.069444  0.527212
			 0.813189  0.081628  0.576247
			 0.821590  0.004477  0.570061
			 0.908657  0.024788  0.416806
			 0.939036 -0.050713  0.340058
			 0.924200 -0.008826  0.381808
			 0.998650 -0.029211 -0.042948
			 0.979178 -0.089560 -0.182178
			 0.955288 -0.155667 -0.251380
			 0.880539 -0.291226 -0.373950
			 0.856059 -0.278734 -0.435282
			 0.823840 -0.194223 -0.532509
			 0.848492 -0.303339 -0.433643
			 0.987682 -0.154610 -0.024080
			 0.981312 -0.187025 -0.045261
			 0.991750 -0.117817  0.050507
			 0.856598 -0.295670 -0.422871
			 0.721067 -0.092293 -0.686691
			 0.755001 -0.141633 -0.640245
			 0.646045 -0.408726 -0.644646
			 0.602229 -0.374214 -0.705184
			 0.559849 -0.161110 -0.812781
			 0.539576 -0.350157 -0.765668
			 0.611554 -0.531431 -0.586159
			 0.579721 -0.589280 -0.562737
			 0.440520 -0.471981 -0.763660
			 0.024970 -0.197630 -0.979959
			 0.435246 -0.367943 -0.821693
			 0.442240 -0.585059 -0.679801
			 0.385015 -0.182936 -0.904598
			 0.229853 -0.149777 -0.961631
			-0.385465 -0.145925 -0.911111
			-0.138301 -0.151154 -0.978788
			 0.040532 -0.180483 -0.982742
			 0.452369 -0.494131 -0.742426
			 0.415807 -0.690465 -0.591915
			 0.518112 -0.698630 -0.493433
			-0.709567 -0.041624 -0.703407
			-0.082668 -0.093903 -0.992143
			-0.368354 -0.059978 -0.927749
			-0.441002 -0.135507 -0.887218
			-0.242244 -0.136773 -0.960526
			-0.227960 -0.137919 -0.963853
			-0.488625 -0.070638 -0.869630
			-0.450886  0.004193 -0.892571
			-0.391784 -0.045961 -0.918909
			-0.646712 -0.028433 -0.762204
			-0.518806 -0.024155 -0.854551
			-0.957313 -0.023508 -0.288095
			-0.847192 -0.044955 -0.529382
			-0.954790 -0.047472 -0.293467
			-0.995154 -0.056524 -0.080455
			 0.829338  0.086362  0.552033
			 0.809164  0.100718  0.578886
			 0.714704  0.120524  0.688965
			 0.852321  0.121072  0.508813
			 0.796630  0.131352  0.590024
			 0.813238  0.118656  0.569705
			 0.206737  0.052951  0.976963
			-0.348982 -0.045149  0.936041
			-0.240853 -0.014905  0.970447
			-0.693311 -0.058185  0.718285
			-0.543030 -0.071733  0.836644
			-0.976671 -0.017763 -0.214005
			-0.976336 -0.029159  0.214287
			-0.997170  0.002151 -0.075143
			-0.897699 -0.057355  0.436860
			 0.871809  0.068625  0.485015
			 0.994374  0.002813  0.105885
			 0.998284 -0.038869 -0.043800
			 0.972575 -0.002307  0.232578
			 0.998131  0.022728  0.056724
			 0.995863 -0.090860 -0.000719
			 0.991008 -0.046528  0.125449
			 0.994442 -0.091875  0.051419
			 0.698461 -0.242146 -0.673437
			 0.618345 -0.154962 -0.770478
			 0.585814 -0.146340 -0.797124
			 0.551169 -0.239648 -0.799238
			 0.796442 -0.206131 -0.568498
			 0.943834 -0.140622 -0.299004
			 0.993608 -0.061642 -0.094569
			 0.492142 -0.121536 -0.861989
			 0.544595 -0.133386 -0.828025
			 0.409632 -0.386451 -0.826352
			 0.363687 -0.164893 -0.916811
			 0.537758 -0.673501 -0.507161
			 0.434282 -0.556279 -0.708486
			 0.356631 -0.157681 -0.920843
			 0.426268 -0.327267 -0.843322
			 0.396544 -0.134229 -0.908149
			 0.029272 -0.181200 -0.983011
			-0.022861 -0.146181 -0.988994
			 0.160764 -0.167274 -0.972715
			 0.259604 -0.171865 -0.950299
			 0.011526 -0.157890 -0.987389
			-0.055351 -0.058320 -0.996762
			 0.230512 -0.161032 -0.959653
			 0.415569 -0.116688 -0.902045
			 0.156661 -0.015781 -0.987526
			-0.465185  0.001615 -0.885212
			-0.095699 -0.026853 -0.995048
			-0.697101 -0.023043 -0.716603
			-0.875304 -0.045272 -0.481449
			-0.886144 -0.000629 -0.463410
			-0.899122 -0.000118 -0.437698
			 0.871986  0.080118  0.482931
			 0.641766  0.146806  0.752718
			 0.946091  0.048849  0.320196
			 0.931950  0.087746  0.351809
			 0.919006  0.126124  0.373524
			 0.906668  0.109095  0.407493
			 0.709528  0.173704  0.682933
			-0.225127 -0.024155  0.974030
			-0.147464 -0.025952  0.988727
			 0.274079  0.085386  0.957909
			-0.309438 -0.045035  0.949853
			-0.357953 -0.053446  0.932209
			-0.767465 -0.117328  0.630263
			-0.557431 -0.052406  0.828568
			-0.963385 -0.027731 -0.266685
			-0.926484 -0.036638 -0.374547
			-0.999861  0.016560 -0.001625
			-0.976768 -0.011338  0.214000
			-0.948348 -0.001752 -0.317228
			-0.954489  0.032560 -0.296462
			-0.905972 -0.049073  0.420484
			 0.946271 -0.039676 -0.320931
			 0.970434 -0.037434 -0.238446
			 0.888100 -0.103935 -0.447746
			 0.999913  0.011375 -0.006667
			 0.897497 -0.007090 -0.440964
			 0.978223  0.071210 -0.194961
			 0.891066 -0.027427 -0.453045
			 0.945908  0.018720 -0.323896
			 0.949718 -0.115616 -0.290978
			 0.978931 -0.092300 -0.182141
			 0.492282 -0.132886 -0.860232
			 0.374655 -0.110214 -0.920590
			 0.560609 -0.192548 -0.805384
			 0.355621 -0.122663 -0.926546
			 0.751232 -0.132744 -0.646551
			 0.620236 -0.121404 -0.774964
			 0.847006 -0.086330 -0.524527
			 0.291833 -0.095936 -0.951646
			 0.347361 -0.141961 -0.926924
			 0.106755 -0.184384 -0.977039
			 0.127034 -0.074860 -0.989069
			 0.239568 -0.091025 -0.966603
			 0.222343 -0.072913 -0.972238
			 0.533636 -0.108958 -0.838666
			-0.630285  0.002309 -0.776361
			-0.385156  0.017206 -0.922691
			-0.506588  0.021639 -0.861917
			 0.271575 -0.025594 -0.962077
			 0.261839 -0.007936 -0.965079
			-0.251990 -0.010002 -0.967678
			 0.251876 -0.066844 -0.965448
			-0.006021 -0.005448 -0.999967
			-0.791098 -0.020498 -0.611346
			-0.789941  0.017084 -0.612945
			-0.846142  0.007746 -0.532901
			 0.991353  0.050467  0.121131
			 0.982656  0.055013  0.177088
			 0.987442  0.071491  0.140884
			 0.883884  0.127182  0.450081
			 0.964546  0.047631  0.259579
			 0.943842  0.106207  0.312861
			 0.465338  0.150384  0.872264
			 0.617699  0.111611  0.778454
			 0.806101  0.154979  0.571123
			-0.254478 -0.044587  0.966050
			-0.056428 -0.024162  0.998114
			-0.232487 -0.058064  0.970865
			-0.296411 -0.043575  0.954066
			 0.310213  0.048558  0.949426
			-0.379533 -0.011360  0.925109
			-0.788763  0.015513  0.614502
			-0.584381  0.007558  0.811445
			-0.986866  0.019011  0.160417
			-0.972499  0.032744 -0.230592
			-0.999672  0.005096 -0.025118
			-0.937593 -0.010679  0.347571
			-0.870609  0.041015 -0.490263
			-0.819777  0.052135 -0.570305
			-0.916809  0.049526 -0.396243
			-0.875614 -0.037169  0.481579
			 0.868074 -0.082778 -0.489485
			 0.734817 -0.080001 -0.673531
			 0.845370 -0.087283 -0.527002
			 0.742023 -0.071019 -0.666602
			 0.941911  0.001722 -0.335859