<?xml version="1.0"?>
<VTKFile type="PolyData" version="0.1" byte_order="LittleEndian" compressor="vtkZLibDataCompressor">
	<PolyData>
		<Piece NumberOfPoints="545" NumberOfVerts="0" NumberOfLines="0" NumberOfStrips="0" NumberOfPolys="1096">
		<PointData Normals="Normals">
		<DataArray type="Float32" Name="Normals" NumberOfComponents="3" format="ascii">
			-0.963548 -0.172654  0.204368
			-0.962595 -0.211601  0.169222
			-0.909218 -0.144614  0.390397
			-0.762945 -0.152781  0.628150
			-0.945383 -0.236445  0.224378
			-0.947407 -0.178533 -0.265603
			-0.980776 -0.187923  0.052566
			-0.985302 -0.150234 -0.081298
			-0.948033 -0.229846  0.220009
			-0.577713 -0.201797  0.790902
			-0.750834 -0.098280  0.653138
			-0.756118 -0.119440  0.643444
			-0.838280 -0.089132  0.537905
			-0.980792 -0.102802  0.165766
			-0.809506 -0.179392  0.559033
			-0.716384 -0.147120  0.682019
			-0.741881 -0.110449  0.661372
			-0.610432 -0.129143  0.781470
			-0.705669 -0.132822  0.695981
			-0.626122 -0.163597  0.762369
			-0.996708 -0.077119 -0.025017
			-0.954018 -0.107970  0.279629
			-0.973679 -0.028892 -0.226084
			-0.879765 -0.088897 -0.467023
			-0.755680 -0.109578 -0.645709
			-0.762411 -0.117226 -0.636386
			-0.961982 -0.098455 -0.254751
			-0.847238 -0.132735 -0.514363
			-0.625281 -0.116431  0.771666
			-0.785069 -0.098563  0.611516
			-0.938493 -0.071178  0.337883
			-0.906940  0.047141  0.418615
			-0.755856 -0.072576  0.650703
			-0.811285  0.159279  0.562536
			-0.467295 -0.152987  0.870764
			-0.488760 -0.183486  0.852905
			-0.522175 -0.115137  0.845031
			-0.353764 -0.154288  0.922522
			-0.587649 -0.196841  0.784807
			-0.588521 -0.176194  0.789049
			-0.595876  0.027698  0.802599
			-0.479501 -0.212401  0.851449
			-0.846710 -0.021493 -0.531620
			-0.871158  0.114316 -0.477510
			-0.990101  0.140022  0.009644
			-0.701563 -0.069476 -0.709212
			-0.412967 -0.059071 -0.908828
			-0.519866 -0.089566 -0.849540
			-0.661409 -0.092789 -0.744263
			-0.315352 -0.064436 -0.946785
			-0.985524 -0.115654 -0.123964
			-0.575010 -0.139748 -0.806123
			-0.611323 -0.126199  0.781254
			-0.476984 -0.137393  0.868107
			-0.763598 -0.116638  0.635070
			-0.452092 -0.135622  0.881601
			-0.875002 -0.156904  0.457988
			-0.789058 -0.135921  0.599093
			-0.885161  0.197028  0.421510
			-0.727917  0.109826  0.676813
			-0.888098  0.351005  0.296780
			-0.700328  0.606539  0.376366
			-0.703624  0.428547  0.566799
			-0.343052 -0.195195  0.918811
			-0.053712 -0.146394  0.987767
			-0.149502 -0.204731  0.967334
			-0.297151 -0.126548  0.946407
			-0.380507 -0.231819  0.895251
			-0.368570 -0.166839  0.914506
			-0.353427  0.096323  0.930490
			-0.622966  0.251679  0.740656
			-0.685606  0.057759 -0.725678
			-0.905833  0.391925 -0.160817
			-0.710494  0.339072 -0.616627
			-0.796379  0.489739 -0.354876
			-0.375456 -0.058237 -0.925009
			-0.442939  0.013395 -0.896452
			-0.248109 -0.075121 -0.965815
			-0.023018 -0.056203 -0.998154
			-0.394500 -0.143108 -0.907683
			-0.137894 -0.107083 -0.984641
			-0.994116 -0.070523  0.082214
			-0.914060 -0.081743 -0.397256
			-0.649840 -0.164388 -0.742081
			-0.346526 -0.057413 -0.936282
			-0.044138 -0.045129 -0.998006
			 0.014254 -0.107743 -0.994077
			-0.114077 -0.281691 -0.952700
			-0.362136 -0.145393  0.920716
			-0.650316 -0.094730  0.753734
			-0.717529 -0.152170  0.679704
			-0.466755 -0.126059  0.875357
			-0.827968 -0.079183  0.555157
			-0.933563  0.107101 -0.342037
			-0.596238  0.507598  0.621968
			-0.786268  0.610768  0.093512
			-0.675458  0.729581 -0.107086
			-0.346258  0.869109  0.353207
			-0.367585  0.924035  0.105078
			-0.273350  0.884397  0.378313
			 0.017952 -0.190183  0.981585
			-0.228414 -0.131812  0.964600
			-0.056438 -0.146261  0.987635
			 0.130619 -0.126931  0.983274
			 0.265466 -0.155710  0.951463
			 0.156276 -0.195050  0.968263
			 0.122032 -0.220005  0.967836
			-0.027247 -0.274720  0.961138
			-0.240575 -0.252522  0.937207
			-0.278511 -0.261548  0.924134
			-0.279053 -0.211813  0.936624
			-0.150855  0.089154  0.984527
			-0.488183  0.319020  0.812344
			-0.114251  0.437662  0.891851
			-0.213473  0.595548  0.774436
			-0.479754  0.630408  0.610263
			-0.371272  0.868344  0.328839
			-0.415753  0.202694 -0.886603
			-0.581841  0.590693 -0.559056
			-0.139009 -0.051194 -0.988967
			-0.180917  0.013506 -0.983406
			-0.047491 -0.073501 -0.996164
			 0.014557 -0.111699 -0.993636
			-0.809269  0.067011  0.583603
			-0.991401  0.124360  0.040718
			-0.692338  0.094091 -0.715412
			-0.636172 -0.144719 -0.757854
			-0.242378 -0.154575 -0.957789
			-0.298226 -0.086880 -0.950533
			-0.128472 -0.106611 -0.985966
			-0.020561 -0.072184 -0.997179
			-0.060965 -0.079565 -0.994964
			 0.048791 -0.091778 -0.994583
			-0.304550 -0.195496  0.932218
			-0.159354 -0.154485  0.975059
			-0.627829 -0.087723  0.773392
			-0.473223 -0.107228  0.874393
			-0.892824  0.254093 -0.371889
			-0.559519  0.192840 -0.806071
			 0.032496  0.961933  0.271345
			 0.025170  0.999023  0.036337
			 0.029218  0.912300  0.408478
			-0.137218  0.950772  0.277854
			-0.305605  0.855464 -0.418075
			 0.092385 -0.162203  0.982423
			 0.185679 -0.154624  0.970368
			 0.214941 -0.145731  0.965693
			 0.342304 -0.132591  0.930187
			 0.342838 -0.139380  0.928997
			 0.505025 -0.167634  0.846669
			 0.341414 -0.169053  0.924585
			 0.187240 -0.263420  0.946336
			 0.356488 -0.230730  0.905362
			 0.136163 -0.300546  0.943998
			-0.087340 -0.302701  0.949075
			-0.205385 -0.269526  0.940836
			 0.196234 -0.299504  0.933697
			-0.086248 -0.133918  0.987232
			-0.110232 -0.275004  0.955103
			 0.108890  0.013296  0.993965
			 0.144359  0.319612  0.936487
			-0.299149  0.689009  0.660134
			 0.029810  0.635942  0.771161
			-0.106442  0.674168  0.730868
			 0.080561  0.950589  0.299816
			-0.268410  0.890775  0.366711
			-0.057916  0.985028 -0.162375
			-0.160658  0.229884 -0.959866
			-0.334440  0.618185 -0.711334
			-0.019894 -0.088953 -0.995837
			-0.053676 -0.041501 -0.997696
			-0.104673  0.026531 -0.994153
			 0.028796 -0.164157 -0.986014
			-0.084921 -0.131300 -0.987699
			-0.052974 -0.174861 -0.983167
			-0.432639  0.058428  0.899672
			-0.975334  0.210302  0.067062
			-0.863254  0.209697  0.459151
			-0.688674  0.166973  0.705584
			-0.343641  0.051377 -0.937695
			-0.441542  0.192332 -0.876384
			-0.144610  0.014587 -0.989381
			-0.075320  0.013988 -0.997061
			 0.052872  0.003954 -0.998594
			 0.134026 -0.042739 -0.990056
			 0.109957 -0.080812 -0.990646
			-0.059705 -0.145240 -0.987593
			-0.194849 -0.187566  0.962732
			-0.057653 -0.175697  0.982755
			 0.091140 -0.164432  0.982169
			-0.518850  0.369267 -0.770997
			-0.487029  0.283945 -0.825940
			-0.092933  0.101888 -0.990445
			-0.268567  0.045173 -0.962201
			-0.250511  0.210107 -0.945039
			 0.120156  0.928951  0.350161
			 0.035842  0.994879 -0.094507
			 0.061897  0.981560  0.180855
			-0.031835  0.826767  0.561642
			-0.063122  0.825034  0.561547
			-0.119858  0.959360 -0.255467
			 0.090462  0.994431 -0.054074
			-0.131923  0.876243 -0.463459
			 0.317940 -0.155901  0.935205
			 0.367680 -0.141541  0.919118
			 0.478537 -0.142077  0.866497
			 0.488254 -0.240702  0.838851
			 0.626408 -0.182373  0.757861
			 0.690022 -0.233943  0.684938
			 0.581025 -0.218356  0.784048
			 0.363720 -0.282212  0.887730
			 0.196004 -0.186906  0.962626
			 0.317005 -0.259060  0.912357
			 0.242761  0.133801  0.960814
			 0.375964  0.034730  0.925983
			 0.375291  0.290972  0.880052
			 0.323486  0.432908  0.841396
			 0.234780  0.560985  0.793835
			 0.350198  0.908976  0.226108
			 0.159499  0.939199 -0.304080
			 0.460325  0.590745  0.662662
			 0.344764  0.912251 -0.221216
			 0.429570  0.877626 -0.212703
			-0.136740  0.470201 -0.871902
			-0.270955  0.742270 -0.612877
			-0.051926 -0.131549 -0.989949
			-0.018669  0.116008 -0.993073
			 0.022061 -0.006368 -0.999736
			-0.148972  0.217246 -0.964682
			-0.108888 -0.175530 -0.978434
			-0.032286 -0.204769 -0.978278
			-0.195500 -0.144668  0.969975
			-0.671609  0.166102  0.722047
			-0.294455  0.085577  0.951826
			-0.175943 -0.020533  0.984186
			-0.950688  0.096575  0.294730
			-0.960013  0.163803 -0.227032
			-0.869727  0.092359  0.484815
			-0.154242  0.082370 -0.984594
			-0.038019  0.059882 -0.997481
			 0.225281  0.002297 -0.974291
			 0.105363  0.039447 -0.993651
			 0.094259 -0.086516 -0.991781
			-0.147876 -0.154397 -0.976880
			-0.196255 -0.158120 -0.967720
			-0.020803 -0.184416  0.982628
			-0.103414 -0.167641  0.980409
			 0.227943 -0.149531  0.962124
			-0.712495  0.245467 -0.657341
			-0.470154  0.250306 -0.846347
			-0.193755  0.285321 -0.938643
			-0.094973  0.304532 -0.947755
			-0.111233  0.209747 -0.971408
			 0.021006  0.057452 -0.998127
			 0.037489  0.160051 -0.986397
			 0.229795  0.077893 -0.970117
			 0.068139  0.902016  0.426292
			 0.297265  0.954112 -0.036100
			 0.250534  0.780501  0.572757
			 0.278549  0.861567  0.424398
			 0.434778  0.900330  0.019340
			 0.104229  0.747393 -0.656156
			 0.552539 -0.117050  0.825227
			 0.522440 -0.060593  0.850520
			 0.670897 -0.147101  0.726814
			 0.517683 -0.261338  0.814682
			 0.846582 -0.247505  0.471211
			 0.823161 -0.233483  0.517582
			 0.631186 -0.210530  0.746513
			 0.924971 -0.285148  0.251238
			 0.602493 -0.206839  0.770856
			 0.477775 -0.168137  0.862242
			 0.636070 -0.014358  0.771497
			 0.499339  0.221411  0.837638
			 0.521099  0.852881  0.032414
			 0.352999  0.912108 -0.208446
			 0.665570  0.487664  0.564978
			 0.366572  0.930355 -0.008073
			-0.010341  0.377994 -0.925750
			 0.032287 -0.052121 -0.998119
			 0.119122  0.275590 -0.953866
			-0.035552 -0.109796 -0.993318
			 0.023554 -0.092142 -0.995467
			-0.118229 -0.089345  0.988959
			-0.697902  0.007598  0.716153
			-0.077328 -0.050510  0.995725
			-0.315913 -0.092185  0.944299
			-0.986856 -0.018610  0.160525
			-0.947681 -0.017520  0.318738
			-0.854606 -0.078285  0.513342
			-0.977964 -0.013255 -0.208353
			-0.844734  0.143448 -0.515605
			 0.296542  0.001450 -0.955019
			 0.111187 -0.146322 -0.982969
			 0.085403 -0.249001 -0.964730
			 0.229616 -0.146408 -0.962206
			 0.162130 -0.246474 -0.955492
			 0.268525 -0.174660 -0.947306
			 0.011982 -0.101479  0.994766
			 0.283371 -0.094980  0.954296
			-0.610219  0.056293 -0.790230
			-0.333964  0.156050 -0.929579
			 0.008257  0.205089 -0.978708
			-0.176120  0.138872 -0.974524
			-0.036555  0.210243 -0.976966
			 0.095932  0.235498 -0.967129
			-0.035651  0.252628 -0.966906
			 0.231309  0.175001 -0.957011
			 0.379098  0.102762 -0.919633
			 0.363265  0.035859 -0.930995
			 0.332054  0.076717 -0.940136
			 0.421226  0.835619  0.352575
			 0.514367  0.743123  0.428013
			 0.357635  0.919708 -0.161973
			 0.376840  0.838118  0.394397
			 0.324660  0.735633 -0.594508
			 0.253557  0.901487 -0.350757
			 0.640612 -0.117108  0.758882
			 0.670920 -0.122563  0.731331
			 0.243019  0.036701  0.969327
			 0.464299  0.089940  0.881100
			 0.683314 -0.099779  0.723275
			 0.707829 -0.081776  0.701635
			 0.698543  0.095034  0.709229
			 0.761504  0.001224  0.648159
			 0.898041 -0.201131  0.391240
			 0.823121 -0.103052  0.558438
			 0.555161 -0.277685  0.784020
			 0.673514 -0.197964  0.712172
			 0.965652 -0.252858 -0.059830
			 0.955725 -0.254129  0.148351
			 0.951060 -0.297509  0.083500
			 0.896321 -0.217299  0.386511
			 0.807119 -0.113053  0.579463
			 0.968942 -0.246843 -0.014858
			 0.952431 -0.300453 -0.051022
			 0.608725 -0.202794  0.767026
			 0.760076 -0.101288  0.641892
			 0.843535  0.026836  0.536403
			 0.717070  0.472407  0.512487
			 0.357353  0.933876  0.013194
			 0.450582  0.826313  0.337910
			 0.231903  0.942990  0.238728
			 0.145052  0.057039 -0.987779
			 0.240598  0.279303 -0.929571
			 0.286758  0.550037 -0.784366
			 0.341766 -0.069010 -0.937248
			 0.333312  0.027680 -0.942410
			 0.290546 -0.038571 -0.956083
			-0.116695 -0.095663  0.988550
			-0.657613 -0.165567  0.734937
			-0.146554 -0.185716  0.971613
			-0.090917 -0.293752  0.951548
			-0.533005 -0.273052  0.800842
			-0.974868 -0.107033  0.195390
			-0.930765 -0.108598  0.349117
			-0.809078 -0.201183  0.552195
			-0.931481 -0.126244 -0.341182
			 0.272337 -0.103961 -0.956569
			 0.220810 -0.218109 -0.950616
			 0.759823 -0.220739 -0.611509
			 0.637232 -0.317204 -0.702366
			 0.637163 -0.158202 -0.754318
			 0.737248 -0.165641 -0.655003
			 0.555052 -0.159038 -0.816470
			-0.010446 -0.007013  0.999921
			-0.290036  0.036244 -0.956329
			-0.449571 -0.133020 -0.883285
			-0.061133 -0.026100 -0.997788
			 0.068952 -0.135032 -0.988439
			 0.101017  0.112194 -0.988538
			 0.080911 -0.030575 -0.996252
			-0.014067 -0.089478 -0.995889
			-0.092804  0.039737 -0.994891
			 0.022230  0.159475 -0.986952
			 0.105044  0.294199 -0.949954
			 0.316716  0.298302 -0.900393
			 0.289340  0.216470 -0.932428
			 0.185218  0.326948 -0.926714
			 0.350415  0.175362 -0.920031
			 0.428962  0.142700 -0.891980
			 0.634759  0.158967 -0.756181
			 0.717592  0.011441 -0.696370
			 0.305558  0.033151 -0.951596
			 0.459510 -0.123861 -0.879494
			 0.274989  0.917219  0.288255
			 0.429283  0.659754 -0.616799
			 0.440208  0.897446  0.028407
			 0.170476  0.883967  0.435362
			 0.445376  0.165653  0.879886
			 0.366560  0.017578  0.930228
			 0.476887  0.058290  0.877030
			 0.649525  0.069791  0.757130
			 0.834902  0.142368  0.531667
			 0.783621  0.087792  0.615005
			 0.774077  0.030538  0.632354
			 0.997628  0.008627 -0.068299
			 0.930234  0.094047  0.354710
			 0.994357 -0.104549 -0.017976
			 0.984790 -0.172759  0.018533
			 0.814240 -0.038945  0.579221
			 0.878058 -0.228418 -0.420522
			 0.916285 -0.264457 -0.300807
			 0.849993 -0.222708 -0.477402
			 0.960020 -0.261313 -0.100389
			 0.972117 -0.122682  0.199846
			 0.914725  0.066851  0.398508
			 0.889865  0.179052  0.419620
			 0.847851  0.350424  0.397934
			 0.431152  0.868557  0.244369
			 0.381228  0.884939  0.267484
			 0.118815  0.969762  0.213179
			 0.409526  0.234729 -0.881584
			 0.548183 -0.069593 -0.833458
			 0.751215 -0.176330 -0.636069
			 0.549147  0.063106 -0.833340
			-0.161225 -0.253387  0.953835
			-0.138164 -0.105183  0.984808
			-0.133886 -0.363031  0.922108
			-0.055349 -0.646950  0.760521
			-0.170650 -0.477873  0.861694
			-0.153154 -0.366887  0.917572
			-0.587825 -0.345314  0.731588
			-0.230236 -0.549073  0.803436
			-0.926835 -0.245834  0.283800
			-0.659515 -0.503388  0.558248
			-0.892418 -0.330793 -0.306865
			-0.514450 -0.295698 -0.804925
			 0.834819 -0.111360 -0.539143
			 0.021653 -0.028574  0.999357
			-0.147423 -0.167624 -0.974766
			 0.097611 -0.414190 -0.904941
			-0.066204 -0.284967 -0.956248
			 0.013420 -0.020583 -0.999698
			-0.052472 -0.466527 -0.882949
			 0.101047 -0.423627 -0.900183
			 0.115602 -0.207686 -0.971341
			 0.397380  0.280876 -0.873612
			 0.464980  0.232103 -0.854355
			 0.432542  0.362572 -0.825499
			 0.371073  0.226064 -0.900666
			 0.412194  0.165858 -0.895872
			 0.855958  0.164113 -0.490309
			 0.222209  0.916038  0.333911
			 0.605510  0.532657 -0.591298
			 0.677163  0.727443 -0.110801
			 0.498833  0.846594  0.185589
			 0.290209 -0.035873  0.956291
			 0.783107  0.055690  0.619389
			 0.637195  0.015463  0.770548
			 0.936632  0.121671  0.328506
			 0.965552  0.198945 -0.167722
			 0.928452 -0.144060 -0.342380
			 0.774029 -0.142240 -0.616965
			 0.965692  0.072854 -0.249259
			 0.906710  0.281128  0.314396
			 0.981255  0.189985  0.032332
			 0.797628  0.534222  0.279993
			 0.747159  0.222821 -0.626182
			 0.752135 -0.031149 -0.658273
			 0.670692  0.026228 -0.741272
			-0.058441 -0.277695  0.958890
			-0.122093 -0.431845  0.893646
			-0.178106 -0.349703  0.919775
			-0.036031 -0.137864  0.989796
			-0.177934 -0.633550  0.752963
			 0.111030 -0.809944  0.575902
			-0.189342 -0.889576  0.415698
			 0.019016 -0.980521  0.195491
			-0.189444 -0.470308  0.861929
			-0.080917 -0.869939  0.486476
			-0.427681 -0.780037  0.456763
			-0.722588 -0.564304  0.399284
			-0.841319 -0.540002  0.024083
			-0.454821 -0.887146  0.078163
			-0.179490 -0.971379  0.155582
			-0.601770 -0.644943 -0.471085
			-0.127975 -0.572298 -0.809999
			 0.148093 -0.153265  0.977025
			 0.053286 -0.668836 -0.741497
			 0.227682 -0.677767 -0.699138
			 0.129902 -0.812236 -0.568681
			-0.083087 -0.475411 -0.875831
			-0.005121 -0.329964 -0.943980
			 0.141127 -0.115716 -0.983205
			 0.389685  0.136481 -0.910779
			-0.016392 -0.620782 -0.783812
			-0.112143 -0.688770 -0.716254
			-0.112538 -0.646024 -0.754976
			-0.037293 -0.608808 -0.792441
			 0.525603  0.338190 -0.780621
			 0.554520  0.337760 -0.760544
			 0.579773  0.279077 -0.765493
			 0.691782  0.257905 -0.674479
			 0.942633  0.210047 -0.259466
			 0.799500  0.507955 -0.320595
			 0.889691  0.446454 -0.095544
			 0.427659 -0.143773  0.892433
			 0.880716  0.022249  0.473121
			 0.823939 -0.056890  0.563816
			 0.700692 -0.143866  0.698809
			 0.905364 -0.028908  0.423650
			 0.992222  0.124399  0.004430
			 0.927705  0.167615 -0.333569
			 0.849700  0.144197 -0.507166
			 0.023884 -0.460500  0.887339
			 0.257857 -0.327904  0.908839
			-0.107287 -0.916967  0.384266
			-0.028240 -0.569145  0.821752
			-0.004589 -0.943747  0.330636
			-0.047865 -0.998301  0.033217
			 0.124363 -0.988427 -0.086863
			-0.012118 -0.917006 -0.398688
			-0.095854 -0.940016 -0.327385
			 0.063109 -0.966357 -0.249340
			-0.139847 -0.852972 -0.502874
			-0.012919 -0.482846 -0.875610
			 0.294412 -0.237928 -0.925587
			 0.472521 -0.086945 -0.877020
			 0.674508  0.084988 -0.733359
			 0.018494 -0.795224 -0.606034
			 0.001749 -0.598769 -0.800920
			 0.813369  0.342054 -0.470564
			 0.683140  0.258724 -0.682922
			 0.494917 -0.246676  0.833192
			 0.760975 -0.184263  0.622064
			 0.581717 -0.297305  0.757109
			 0.855501 -0.183746  0.484103
			 0.992410 -0.102415 -0.068071
			 0.960718  0.161576 -0.225639
			 0.220682 -0.591789  0.775297
			 0.501398 -0.417659  0.757734
			 0.158835 -0.885097  0.437463
			 0.130817 -0.989966  0.053423
			 0.281417 -0.306098 -0.909455
			 0.267663 -0.723541 -0.636275
			 0.781168 -0.320850 -0.535567
			 0.571924 -0.218132 -0.790773
			 0.847971  0.066570 -0.525846
			 0.395992 -0.911213 -0.113496
			 0.648440 -0.422604  0.633192
			 0.920201 -0.367779  0.134049
			 0.671463 -0.629818  0.390469
			 0.448496 -0.733141  0.511229
			 0.729712 -0.664496 -0.161137
		</DataArray>
	</PointData>
	<Points>
		<DataArray type="Float32" NumberOfComponents="3" format="ascii">
			-0.003990 -0.008448 -0.001009
			-0.003960 -0.008957 -0.001277
			-0.003633 -0.010162 -0.000935
			-0.003763 -0.008029 -0.000521
			-0.004194 -0.007837 -0.001180
			-0.004172 -0.007685 -0.002275
			-0.004096 -0.008267 -0.002105
			-0.003996 -0.008824 -0.002153
			-0.003889 -0.009434 -0.001762
			-0.003817 -0.009933 -0.002250
			-0.003224 -0.010338 -0.000364
			-0.003180 -0.009825 -0.000227
			-0.003280 -0.011908 -0.000641
			-0.003697 -0.010619 -0.001422
			-0.004318 -0.006772 -0.000864
			-0.003410 -0.006584  0.000159
			-0.003575 -0.005999  0.000113
			-0.002502 -0.010600  0.000314
			-0.002887 -0.006253  0.000783
			-0.002289 -0.008036  0.000958
			-0.004589 -0.006051 -0.001692
			-0.004546 -0.006155 -0.001035
			-0.004600 -0.005483 -0.001863
			-0.004354 -0.006114 -0.002358
			-0.004139 -0.006537 -0.002613
			-0.003679 -0.008802 -0.002809
			-0.003680 -0.011063 -0.002128
			-0.003627 -0.009359 -0.002774
			-0.002389 -0.012227  0.000172
			-0.003155 -0.012488 -0.000560
			-0.003599 -0.012274 -0.001349
			-0.004445 -0.005674 -0.000767
			-0.003439 -0.005528  0.000382
			-0.003854 -0.004804 -0.000228
			-0.001798 -0.009766  0.000923
			-0.001878 -0.009213  0.000972
			-0.002060 -0.011272  0.000533
			-0.001489 -0.010382  0.000972
			-0.002002 -0.007080  0.001386
			-0.002122 -0.006006  0.001628
			-0.001837 -0.005571  0.001902
			-0.001847 -0.008702  0.001129
			-0.004298 -0.005457 -0.002527
			-0.004336 -0.004915 -0.002470
			-0.004585 -0.004953 -0.001814
			-0.004094 -0.006009 -0.002773
			-0.003287 -0.008305 -0.003135
			-0.003454 -0.007328 -0.003113
			-0.003425 -0.009927 -0.002905
			-0.002885 -0.009466 -0.003220
			-0.003594 -0.013311 -0.001666
			-0.003409 -0.011030 -0.002784
			-0.002474 -0.013254 -0.000077
			-0.001947 -0.012896  0.000368
			-0.003197 -0.012998 -0.000705
			-0.001946 -0.011834  0.000508
			-0.003402 -0.013952 -0.001275
			-0.003239 -0.013507 -0.000861
			-0.004279 -0.005103 -0.000710
			-0.003283 -0.005048  0.000563
			-0.004430 -0.004516 -0.001326
			-0.003949 -0.004162 -0.000792
			-0.003714 -0.004299 -0.000205
			-0.001379 -0.009062  0.001220
			-0.000310 -0.011199  0.001013
			-0.000737 -0.010333  0.001120
			-0.001219 -0.012567  0.000682
			-0.001519 -0.007750  0.001508
			-0.001351 -0.005711  0.002116
			-0.001063 -0.005249  0.002207
			-0.002266 -0.004772  0.001368
			-0.003983 -0.004934 -0.002907
			-0.004431 -0.004424 -0.001983
			-0.003958 -0.004409 -0.002832
			-0.004199 -0.004273 -0.002408
			-0.003351 -0.006107 -0.003270
			-0.003506 -0.004994 -0.003251
			-0.002937 -0.007122 -0.003303
			-0.002360 -0.009159 -0.003253
			-0.003303 -0.010490 -0.002954
			-0.002685 -0.010054 -0.003204
			-0.003300 -0.014980 -0.001811
			-0.003314 -0.014467 -0.001986
			-0.003288 -0.013256 -0.002540
			-0.003016 -0.012188 -0.002880
			-0.002334 -0.011793 -0.002952
			-0.001524 -0.011065 -0.002962
			-0.002487 -0.010653 -0.003115
			-0.001547 -0.014071  0.000372
			-0.002403 -0.015395 -0.000336
			-0.002718 -0.013700 -0.000347
			-0.001633 -0.015103  0.000178
			-0.003017 -0.015170 -0.000933
			-0.003299 -0.016016 -0.002127
			-0.003236 -0.004493  0.000482
			-0.004188 -0.004077 -0.001502
			-0.003901 -0.003663 -0.001901
			-0.003428 -0.003869 -0.000354
			-0.003377 -0.003386 -0.002085
			-0.002438 -0.003918  0.000332
			-0.000010 -0.010598  0.001113
			-0.000973 -0.013165  0.000690
			-0.000485 -0.013286  0.000759
			 0.000136 -0.011830  0.000934
			 0.000960 -0.010937  0.000932
			 0.000512 -0.010322  0.001127
			 0.000352 -0.009242  0.001392
			-0.000341 -0.008570  0.001582
			-0.000920 -0.008427  0.001511
			-0.000990 -0.007371  0.001794
			-0.000899 -0.006270  0.002153
			-0.000575 -0.005379  0.002334
			-0.001774 -0.004822  0.001820
			-0.000502 -0.004516  0.002101
			-0.000989 -0.004392  0.001879
			-0.001963 -0.004147  0.001211
			-0.002197 -0.003993  0.000775
			-0.003462 -0.004468 -0.003214
			-0.003710 -0.003929 -0.002808
			-0.002858 -0.006202 -0.003399
			-0.003042 -0.005420 -0.003372
			-0.002504 -0.007914 -0.003322
			-0.001315 -0.008594 -0.003175
			-0.003037 -0.016768 -0.001079
			-0.003394 -0.016559 -0.001958
			-0.003127 -0.015228 -0.002273
			-0.003055 -0.014384 -0.002416
			-0.002915 -0.012753 -0.002873
			-0.002763 -0.013899 -0.002672
			-0.002477 -0.013474 -0.002763
			-0.001110 -0.012070 -0.002964
			-0.001396 -0.012504 -0.002869
			 0.000058 -0.010065 -0.003054
			-0.001475 -0.016203  0.000051
			-0.001103 -0.014721  0.000438
			-0.002446 -0.015913 -0.000427
			-0.002291 -0.017026 -0.000459
			-0.003399 -0.017030 -0.002444
			-0.003124 -0.016527 -0.002614
			-0.002910 -0.003670 -0.000767
			-0.001691 -0.003953  0.000125
			-0.002648 -0.003555 -0.001194
			-0.002613 -0.003195 -0.002048
			-0.003121 -0.003335 -0.002517
			 0.000241 -0.014503  0.000541
			 0.000453 -0.014016  0.000584
			 0.000540 -0.012976  0.000735
			 0.001120 -0.012022  0.000709
			 0.001163 -0.011499  0.000762
			 0.001949 -0.011085  0.000399
			 0.001175 -0.010445  0.000935
			 0.000886 -0.008827  0.001432
			 0.001294 -0.009937  0.000977
			 0.000724 -0.007761  0.001795
			 0.000029 -0.007102  0.002068
			-0.000788 -0.007943  0.001692
			 0.000928 -0.008316  0.001569
			-0.000376 -0.005967  0.002345
			-0.000419 -0.006484  0.002240
			 0.000158 -0.005553  0.002377
			 0.000205 -0.005009  0.002284
			-0.001461 -0.004108  0.001449
			 0.000019 -0.004279  0.001914
			-0.000464 -0.004100  0.001697
			-0.000174 -0.003640  0.001302
			-0.001434 -0.003811  0.001033
			-0.000669 -0.003630  0.000846
			-0.002970 -0.004559 -0.003360
			-0.003174 -0.004002 -0.003139
			-0.001680 -0.007014 -0.003376
			-0.002357 -0.006170 -0.003423
			-0.001755 -0.004964 -0.003520
			 0.000677 -0.008654 -0.003230
			-0.000700 -0.007233 -0.003404
			-0.000506 -0.007888 -0.003313
			-0.002578 -0.017482 -0.000600
			-0.003703 -0.018090 -0.002105
			-0.003346 -0.017754 -0.001252
			-0.003060 -0.017311 -0.001015
			-0.002115 -0.015107 -0.002821
			-0.002653 -0.015548 -0.002661
			-0.001775 -0.014028 -0.002796
			-0.001446 -0.013088 -0.002877
			 0.000160 -0.013448 -0.002916
			 0.000448 -0.011350 -0.002918
			 0.000736 -0.010891 -0.002890
			 0.001079 -0.009785 -0.003003
			-0.000767 -0.016680  0.000095
			-0.000168 -0.015470  0.000402
			 0.000121 -0.015006  0.000477
			-0.003494 -0.018013 -0.002981
			-0.003318 -0.017528 -0.002867
			-0.000931 -0.015875 -0.003109
			-0.002547 -0.016094 -0.002782
			-0.002043 -0.017231 -0.003195
			-0.002170 -0.003787 -0.000981
			-0.001192 -0.003977 -0.000086
			-0.001681 -0.003894 -0.000757
			-0.001401 -0.003577 -0.001387
			-0.000877 -0.003295 -0.001570
			-0.002104 -0.003108 -0.002472
			-0.000347 -0.002974 -0.002193
			-0.001369 -0.003307 -0.002915
			 0.001148 -0.014672  0.000285
			 0.001128 -0.014139  0.000374
			 0.001313 -0.012580  0.000521
			 0.002078 -0.009535  0.000686
			 0.002304 -0.012180 -0.000083
			 0.003207 -0.010187 -0.000323
			 0.002487 -0.009584  0.000380
			 0.001490 -0.008413  0.001351
			 0.001097 -0.006273  0.002144
			 0.001352 -0.006843  0.001935
			 0.000664 -0.005486  0.002264
			 0.001387 -0.005793  0.002100
			 0.001188 -0.005201  0.002051
			 0.000984 -0.004671  0.001902
			 0.000507 -0.004409  0.001914
			 0.000309 -0.003829  0.001431
			-0.000688 -0.003903  0.000155
			 0.001507 -0.004411  0.001495
			 0.000294 -0.004091  0.000162
			 0.000773 -0.004322  0.000355
			-0.001896 -0.003645 -0.003181
			-0.002396 -0.003651 -0.003066
			 0.000083 -0.006847 -0.003575
			-0.000227 -0.004606 -0.003625
			 0.000174 -0.005776 -0.003650
			-0.001441 -0.004187 -0.003442
			 0.001223 -0.008101 -0.003289
			 0.001015 -0.007624 -0.003418
			-0.000829 -0.017419 -0.000047
			-0.003146 -0.018315 -0.000780
			-0.002670 -0.018561 -0.000460
			-0.001403 -0.018332 -0.000304
			-0.003771 -0.018641 -0.001935
			-0.003870 -0.019056 -0.002642
			-0.003477 -0.018269 -0.001228
			-0.001334 -0.014723 -0.002962
			-0.000523 -0.013997 -0.002984
			 0.000557 -0.013009 -0.002835
			 0.000224 -0.014002 -0.002929
			 0.001304 -0.013012 -0.002626
			 0.001273 -0.010453 -0.002945
			 0.001811 -0.009999 -0.003191
			-0.000297 -0.017019  0.000091
			-0.000340 -0.017535 -0.000013
			 0.000772 -0.016187  0.000136
			-0.003458 -0.018523 -0.003249
			-0.003442 -0.019042 -0.003425
			-0.002950 -0.019133 -0.003575
			-0.001637 -0.018361 -0.003512
			-0.001595 -0.017850 -0.003367
			-0.000598 -0.014881 -0.003029
			-0.000729 -0.016452 -0.003181
			 0.000625 -0.015174 -0.002932
			-0.000433 -0.003893 -0.000728
			 0.000046 -0.004102 -0.000289
			 0.000087 -0.003673 -0.001137
			-0.000115 -0.003149 -0.001760
			 0.000487 -0.003349 -0.002207
			-0.000633 -0.003466 -0.003133
			 0.001614 -0.013152  0.000255
			 0.001725 -0.016744 -0.000293
			 0.002237 -0.012698 -0.000132
			 0.001794 -0.006912  0.001710
			 0.003427 -0.010710 -0.000809
			 0.003882 -0.008948 -0.000637
			 0.003212 -0.009154 -0.000006
			 0.003839 -0.009476 -0.000908
			 0.002559 -0.008030  0.000746
			 0.001837 -0.006396  0.001817
			 0.002602 -0.005967  0.001380
			 0.002155 -0.005594  0.001625
			 0.002224 -0.004751  0.001038
			 0.001501 -0.004541  0.000731
			 0.002683 -0.005289  0.001222
			 0.001488 -0.004766 -0.000314
			-0.000429 -0.004036 -0.003511
			 0.000871 -0.006382 -0.003585
			 0.000795 -0.004316 -0.003498
			 0.002348 -0.009560 -0.003345
			 0.002194 -0.008436 -0.003396
			-0.000426 -0.018575 -0.000171
			-0.003051 -0.018993 -0.000617
			-0.001737 -0.019331 -0.000345
			-0.002515 -0.019689 -0.000377
			-0.003895 -0.019617 -0.002471
			-0.003716 -0.019221 -0.001743
			-0.003481 -0.019354 -0.001180
			-0.003903 -0.020086 -0.002958
			-0.003735 -0.019545 -0.003230
			 0.001000 -0.013670 -0.002707
			 0.001777 -0.013328 -0.002555
			 0.002116 -0.012284 -0.002829
			 0.002501 -0.010700 -0.003182
			 0.002485 -0.011813 -0.002931
			 0.002543 -0.010202 -0.003226
			 0.000106 -0.018168 -0.000080
			 0.001227 -0.016723 -0.000082
			-0.003530 -0.020089 -0.003536
			-0.003319 -0.019592 -0.003565
			-0.001476 -0.019433 -0.003838
			-0.002543 -0.020255 -0.003944
			-0.001186 -0.018941 -0.003674
			 0.000208 -0.017184 -0.003331
			 0.000127 -0.018158 -0.003570
			 0.000782 -0.016279 -0.003018
			 0.001842 -0.015510 -0.002528
			 0.000912 -0.014719 -0.002786
			 0.001484 -0.014881 -0.002571
			 0.000540 -0.004194 -0.000729
			 0.000586 -0.003702 -0.001571
			 0.002294 -0.004236 -0.002687
			 0.001298 -0.004149 -0.001696
			 0.001084 -0.003826 -0.003124
			 0.000608 -0.003529 -0.002887
			 0.001815 -0.014234 -0.000062
			 0.002227 -0.013753 -0.000306
			 0.001257 -0.017340 -0.000137
			 0.001851 -0.017446 -0.000354
			 0.002432 -0.014298 -0.000601
			 0.002518 -0.015902 -0.000862