<?xml version="1.0"?>
<VTKFile type="PolyData" version="0.1" byte_order="LittleEndian" compressor="vtkZLibDataCompressor">
	<PolyData>
		<Piece NumberOfPoints="2752" NumberOfVerts="0" NumberOfLines="0" NumberOfStrips="0" NumberOfPolys="5412">
		<PointData Normals="Normals">
		<DataArray type="Float32" Name="Normals" NumberOfComponents="3" format="ascii">
			-0.999539  0.006705 -0.029620
			 0.024388 -0.999636 -0.011557
			-0.746240 -0.537439 -0.392792
			 0.124744  0.896409 -0.425311
			-0.950355 -0.213598 -0.226277
			-0.101855 -0.817332  0.567092
			-0.388446  0.730562 -0.561595
			-0.001665 -0.983843 -0.179025
			 0.985007 -0.075310  0.155211
			 0.916581  0.067046 -0.394189
			-0.530921 -0.845011 -0.063877
			-0.824359  0.553201 -0.120002
			 0.400830  0.013851 -0.916048
			 0.865288 -0.468584  0.178062
			-0.081946 -0.937044  0.339461
			-0.064714 -0.962565 -0.263211
			 0.867364 -0.036173 -0.496358
			-0.163286  0.902530  0.398469
			-0.706914 -0.647232  0.285243
			 0.840833 -0.037449 -0.539998
			-0.167420 -0.925651 -0.339325
			 0.147193  0.877170  0.457063
			-0.637334 -0.334017  0.694433
			 0.212918  0.802116  0.557921
			 0.646025 -0.003529 -0.763308
			-0.282731 -0.919154 -0.274260
			-0.584796 -0.259599  0.768519
			 0.146135  0.826819  0.543152
			-0.516023 -0.389529  0.762881
			 0.404406  0.156388 -0.901110
			-0.345649 -0.871371 -0.348194
			 0.227286  0.775778  0.588650
			-0.508027 -0.470734  0.721330
			-0.451015 -0.670895 -0.588630
			 0.274709  0.341879 -0.898696
			-0.460236 -0.390189  0.797455
			 0.404811  0.675051  0.616794
			-0.635805 -0.230687 -0.736570
			 0.316027  0.630161 -0.709242
			-0.773854 -0.254213 -0.580108
			-0.257791 -0.561058  0.786612
			 0.592766  0.513102  0.620769
			 0.243798  0.704390 -0.666632
			-0.685187 -0.478840 -0.548846
			 0.143711  0.735325 -0.662303
			-0.151407 -0.653299  0.741806
			 0.721886  0.450774  0.525056
			 0.116356  0.692359 -0.712110
			-0.710718 -0.472653 -0.521036
			 0.848721  0.427025  0.311964
			-0.041925 -0.714826  0.698044
			 0.870269  0.454340  0.190280
			 0.095457  0.752592 -0.651531
			-0.814321 -0.311174 -0.489951
			 0.152363 -0.727683  0.668777
			 0.878411  0.385131  0.282962
			 0.189762 -0.741588  0.643458
			 0.132022  0.820291 -0.556501
			-0.876651 -0.177056 -0.447365
			 0.853696  0.115855 -0.507720
			 0.526281 -0.809959  0.258835
			-0.389381 -0.632130 -0.669921
			 0.011423  0.491927 -0.870561
			-0.153044 -0.845467  0.511628
			 0.474246 -0.380202  0.794064
			 0.205983 -0.113890  0.971905
			-0.280376 -0.683560  0.673895
			 0.657732 -0.652530 -0.376289
			-0.577705 -0.556400 -0.597224
			 0.609613  0.773910  0.171564
			 0.931983  0.328585 -0.153100
			 0.235306  0.014249  0.971817
			 0.539316  0.841542 -0.030747
			-0.343115 -0.739502  0.579145
			 0.058182  0.219183 -0.973948
			 0.564420  0.507289 -0.651220
			-0.539456 -0.563485 -0.625677
			-0.114778  0.403724 -0.907652
			 0.097219  0.449943 -0.887750
			 0.137962  0.633605 -0.761256
			 0.537577  0.829448 -0.151746
			 0.208110  0.078331  0.974964
			 0.058134  0.372138 -0.926355
			-0.272697 -0.660779  0.699291
			-0.503403 -0.641216 -0.579161
			-0.039504  0.362937 -0.930976
			-0.015247  0.307056 -0.951569
			 0.476247  0.695655 -0.537822
			 0.072741  0.164366 -0.983714
			 0.292699  0.386807  0.874475
			 0.076231  0.248666 -0.965585
			-0.315518 -0.632651  0.707249
			-0.146586 -0.111742 -0.982866
			 0.530891  0.627700 -0.569339
			 0.274361  0.169892 -0.946500
			 0.237448  0.106133 -0.965585
			 0.228016  0.526946  0.818741
			-0.021889 -0.127200 -0.991636
			-0.498620 -0.466049  0.730874
			 0.511184  0.242826 -0.824455
			 0.642802  0.597793 -0.479008
			 0.421065  0.100763 -0.901416
			-0.316381 -0.689752 -0.651264
			 0.104084  0.505588  0.856474
			-0.647565 -0.471837  0.598356
			 0.606557  0.222774 -0.763191
			 0.597364  0.101808 -0.795482
			 0.690668  0.601386 -0.401639
			-0.112589 -0.717060 -0.687858
			-0.715124 -0.461475  0.525013
			-0.140935  0.563281  0.814157
			 0.654227  0.222683 -0.722772
			 0.656589  0.189436 -0.730072
			 0.187252 -0.765710 -0.615325
			 0.620087  0.629083 -0.468771
			-0.665725 -0.549848  0.504458
			-0.307925  0.693075  0.651790
			 0.728596  0.258349 -0.634353
			 0.725609  0.217402 -0.652862
			 0.299091 -0.708765 -0.638903
			-0.637505 -0.675565  0.370405
			 0.556963  0.774615 -0.299607
			-0.451133  0.545208  0.706560
			 0.847683  0.201904 -0.490580
			 0.754142  0.593412 -0.281305
			 0.326775 -0.684856 -0.651299
			-0.693576 -0.707559  0.135321
			-0.693255  0.120447  0.710556
			 0.658317  0.747113 -0.091878
			 0.335169 -0.651700 -0.680404
			 0.969813  0.111581 -0.216824
			 0.874278  0.478097  0.084030
			-0.803941 -0.565797 -0.183176
			-0.836524  0.291639  0.463870
			 0.694626  0.673657  0.252350
			-0.732696 -0.550245 -0.400482
			 0.544925 -0.676946 -0.494774
			 0.998758 -0.042114  0.026627
			 0.851870  0.431940  0.296219
			-0.996374  0.084962  0.004518
			 0.061773  0.860288  0.506052
			-0.990870 -0.058726 -0.121355
			-0.479750 -0.752181 -0.451735
			 0.627257 -0.727251 -0.278668
			 0.967350 -0.211816  0.139166
			 0.790716  0.427107  0.438575
			-0.309937  0.871168  0.380795
			-0.897129 -0.116389 -0.426160
			-0.225892 -0.840585 -0.492330
			 0.441519 -0.894652 -0.068257
			 0.820851 -0.338736  0.459848
			 0.679751  0.450593  0.578710
			-0.091041  0.994128  0.058483
			-0.524806 -0.051739 -0.849648
			 0.178946 -0.773689 -0.607770
			 0.878717  0.111160  0.464220
			 0.552821  0.477921  0.682628
			 0.388767  0.717208 -0.578336
			 0.490250 -0.616810  0.615793
			 0.964301  0.095521  0.246980
			 0.577614  0.112708  0.808492
			 0.551852 -0.716086 -0.427411
			 0.248046 -0.506661  0.825693
			 0.582662  0.510873 -0.632071
			 0.290006  0.874080 -0.389719
			 0.485607  0.839092 -0.245173
			 0.519359  0.277258  0.808328
			-0.549011 -0.828262  0.112113
			-0.339059  0.177116 -0.923942
			 0.225896 -0.344241  0.911301
			-0.211668  0.655075 -0.725309
			-0.017577  0.487576 -0.872904
			-0.382099  0.070541 -0.921425
			-0.549633  0.196823 -0.811889
			 0.458615  0.835604 -0.302387
			-0.011147  0.280558 -0.959772
			 0.389064  0.350662  0.851860
			-0.601123 -0.797789  0.046725
			 0.038709 -0.313390  0.948835
			-0.196604  0.021274 -0.980252
			-0.542816 -0.810075 -0.221652
			 0.102756  0.242941 -0.964583
			 0.471811  0.784614 -0.402212
			-0.016955  0.031960 -0.999345
			 0.306378  0.460965  0.832853
			-0.206445 -0.490652  0.846547
			-0.373939 -0.700220 -0.608162
			 0.065900 -0.010023 -0.997776
			 0.071951 -0.034083 -0.996826
			 0.499884  0.616690 -0.608120
			-0.305161 -0.667327 -0.679375
			 0.109095  0.349636  0.930512
			-0.382890 -0.646198  0.660169
			 0.028065 -0.148431 -0.988524
			-0.428495 -0.903023 -0.030666
			 0.130518 -0.057221 -0.989793
			 0.466580  0.589384 -0.659492
			-0.229927 -0.308605  0.922982
			 0.134064  0.387633  0.912013
			 0.080382 -0.251786 -0.964439
			-0.623154 -0.700423  0.347975
			-0.052931  0.137449  0.989094
			 0.236593 -0.018337 -0.971436
			 0.556029  0.791654 -0.253210
			-0.032053  0.276087  0.960598
			 0.340436 -0.400415 -0.850747
			-0.422122 -0.791342  0.442256
			-0.168733  0.311998  0.934979
			-0.314036  0.210715  0.925733
			 0.515070  0.310493 -0.798935
			 0.191651  0.913170  0.359710
			-0.330808 -0.931222  0.152943
			 0.529320 -0.283366 -0.799702
			-0.460478  0.197880  0.865334
			-0.447507  0.339345  0.827395
			-0.010523  0.939555  0.342237
			 0.583325  0.469763 -0.662612
			-0.668711 -0.094975  0.737432
			-0.110719 -0.978356 -0.174818
			 0.691539 -0.185299 -0.698168
			-0.625356  0.273956  0.730669
			-0.100753  0.907831  0.407053
			 0.685768  0.542453 -0.485250
			-0.834548 -0.368031  0.409978
			-0.857970  0.120501  0.499367
			 0.110630 -0.913358 -0.391839
			 0.896066 -0.031640 -0.442791
			-0.505867  0.710896  0.488595
			 0.634066  0.772811 -0.026879
			-0.824967 -0.559396 -0.080659
			-0.984519  0.071907  0.159850
			-0.536129  0.774188  0.336449
			 0.341914 -0.826569 -0.447079
			 0.977682 -0.136383 -0.159806
			 0.594552  0.768259  0.237247
			-0.504757 -0.784501 -0.360248
			-0.997531  0.031282 -0.062882
			-0.268865  0.919802  0.285788
			 0.685278  0.656570  0.315135
			 0.417483 -0.851635 -0.316901
			 0.942736 -0.332114  0.030803
			-0.138774 -0.907089 -0.397405
			-0.782861 -0.469528 -0.408255
			-0.476794  0.850926 -0.220436
			 0.655022  0.636318  0.407487
			 0.884992 -0.212368  0.414353
			 0.115458 -0.973926 -0.195288
			-0.339110 -0.831512 -0.439991
			-0.571466 -0.252938 -0.780672
			 0.766317  0.536554  0.353366
			 0.144995  0.574779 -0.805361
			 0.302543 -0.896888 -0.322583
			 0.469558  0.882214  0.034844
			 0.679742  0.075509  0.729554
			 0.833535  0.440809 -0.333025
			-0.363732  0.576695 -0.731520
			 0.044857  0.463910 -0.884746
			 0.423204  0.898486  0.116709
			 0.504575  0.074101  0.860182
			 0.184669 -0.562892  0.805636
			 0.308300 -0.575304  0.757612
			 0.882022 -0.067734  0.466315
			 0.727443 -0.568475 -0.384269
			-0.285996  0.448888 -0.846585
			-0.214804  0.113792 -0.970005
			-0.687245  0.035985 -0.725534
			 0.409295  0.907549  0.093977
			 0.327117  0.085432  0.941114
			 0.081907 -0.385000  0.919275
			-0.438557 -0.898688  0.005286
			-0.500420 -0.855497 -0.133056
			-0.603335 -0.792356 -0.090329
			-0.497588 -0.536177 -0.681851
			-0.535853 -0.006531 -0.844286
			-0.120534  0.356534 -0.926475
			 0.188950  0.081552  0.978594
			 0.424297  0.897930  0.117022
			-0.075404 -0.369793  0.926049
			-0.447201 -0.891883 -0.067495
			-0.374672 -0.158386 -0.913529
			-0.244949 -0.259530 -0.934154
			 0.096110  0.418187 -0.903262
			 0.046817  0.089837  0.994856
			-0.206071 -0.371655  0.905211
			 0.435245  0.886098  0.159351
			-0.431013 -0.885756 -0.172234
			-0.129607 -0.261426 -0.956482
			 0.249562  0.422702 -0.871230
			-0.400925 -0.436329  0.805528
			 0.004387  0.302115  0.953261
			-0.391532 -0.884289 -0.254432
			 0.474513  0.880174  0.011444
			 0.074021 -0.188309 -0.979316
			 0.308827  0.350818 -0.884054
			-0.478879 -0.518227  0.708601
			-0.367990 -0.862532 -0.347307
			-0.019945  0.353144  0.935357
			 0.225386 -0.178815 -0.957719
			 0.486869  0.873394  0.011908
			 0.448251  0.398052 -0.800391
			-0.453620 -0.625507  0.634799
			-0.214613 -0.904661 -0.368143
			 0.316001 -0.214029 -0.924303
			-0.194839  0.414502  0.888946
			 0.565684  0.498940 -0.656551
			 0.348134  0.931046  0.109344
			-0.614747 -0.441847  0.653343
			 0.119981 -0.892748 -0.434287
			 0.471850 -0.231877 -0.850641
			 0.592215  0.541456 -0.596747
			-0.484929  0.418683  0.767821
			 0.096805  0.943494  0.316936
			-0.791914 -0.110147  0.600617
			 0.076567 -0.938348 -0.337106
			 0.701238 -0.208682 -0.681702
			 0.673043  0.623088 -0.398466
			-0.174585  0.884634  0.432369
			-0.682964  0.211220  0.699247
			-0.890412 -0.437362  0.126020
			 0.080515 -0.930199 -0.358117
			 0.902060 -0.184897 -0.390002
			 0.911011  0.352311 -0.214328
			-0.069887  0.932024  0.355594
			-0.867748  0.230946  0.440088
			-0.918147 -0.366280 -0.151145
			-0.046422 -0.900657 -0.432044
			 0.946109 -0.291826 -0.140410
			 0.993429  0.114227  0.007162
			 0.354662  0.885923  0.298923
			-0.888005  0.410939  0.206340
			-0.223798 -0.932730 -0.282718
			-0.921869 -0.284437 -0.263161
			 0.868343 -0.494747  0.034735
			 0.968679  0.139901  0.205156
			 0.411003  0.885014  0.218692
			-0.857243  0.514912  0.000145
			 0.652918 -0.539486  0.531651
			-0.467441 -0.851967 -0.235904
			-0.866717 -0.223077 -0.446136
			 0.847299  0.272728  0.455746
			 0.452300  0.881420  0.136103
			-0.734393  0.634418 -0.241207
			 0.790264  0.259943 -0.554899
			 0.910470 -0.345527  0.227276
			-0.078274 -0.855807 -0.511339
			-0.386897  0.425898 -0.817877
			-0.290515 -0.416482 -0.861477
			 0.593235  0.802176 -0.067717
			-0.735636  0.078326 -0.672834
			-0.099726  0.467880 -0.878147
			-0.298596  0.187020 -0.935876
			-0.161169  0.858572 -0.486701
			-0.430817 -0.895870  0.108694
			-0.535180 -0.844658  0.011643
			-0.528935  0.010247 -0.848600
			 0.960850 -0.127669 -0.245903
			 0.784890  0.571387 -0.239718
			 0.417355 -0.855885 -0.305411
			-0.252018  0.553569 -0.793756
			 0.664043  0.604571  0.439933
			 0.310947 -0.223240  0.923837
			 0.453435 -0.273053  0.848433
			-0.443310 -0.896348 -0.006009
			 0.519994 -0.485571  0.702728
			-0.410538 -0.009974 -0.911789
			 0.688262  0.183997  0.701741
			 0.917196  0.273381  0.289852
			 0.315332  0.948511  0.029893
			-0.170699  0.530891 -0.830070
			 0.100033 -0.278698  0.955155
			 0.394717  0.368095  0.841846
			 0.475604  0.343549  0.809800
			 0.543882  0.296225  0.785139
			-0.539115 -0.819499 -0.194364
			-0.295042 -0.031856 -0.954953
			 0.379150  0.920640  0.093093
			 0.039895  0.534313 -0.844345
			-0.174703 -0.395230  0.901816
			 0.297946  0.436973  0.848695
			 0.508898  0.857784 -0.072306
			 0.455080  0.890056  0.026491
			-0.505369 -0.810262 -0.296779
			-0.090498 -0.084769 -0.992282
			 0.207285  0.420839 -0.883135
			-0.346864 -0.387134  0.854291
			 0.128724  0.429360  0.893913
			 0.514480  0.850315  0.110791
			 0.369172  0.382089 -0.847183
			-0.477239 -0.829974 -0.288766
			 0.074398 -0.129633 -0.988767
			-0.471089 -0.266925  0.840729
			-0.035957  0.474559  0.879489
			 0.380433  0.881252  0.280473
			 0.495894  0.435347 -0.751374
			 0.216253 -0.227334 -0.949502
			-0.413637 -0.895781 -0.162728
			-0.294442  0.479812  0.826489
			-0.521366 -0.173237  0.835564
			 0.164513  0.918726  0.358996
			 0.552475  0.603549 -0.574891
			 0.362874 -0.333480 -0.870123
			-0.294573 -0.949460 -0.108406
			 0.159502  0.950758  0.265741
			-0.404312  0.449180  0.796724
			-0.617838 -0.153586  0.771160
			 0.612899  0.506747 -0.606270
			 0.467051 -0.359478 -0.807861
			-0.256734 -0.959588 -0.115235
			 0.678608  0.505080 -0.533278
			 0.038530  0.951110  0.306441
			-0.524680  0.484074  0.700274
			-0.735236 -0.286497  0.614287
			 0.606818 -0.301087 -0.735607
			-0.183518 -0.961233 -0.205799
			 0.922685  0.104295 -0.371181
			 0.792973 -0.385668 -0.471650
			 0.346629  0.929669  0.124756
			-0.691580  0.495286  0.525745
			-0.905896 -0.274322  0.322646
			-0.093660 -0.928176 -0.360164
			 0.992734 -0.047476 -0.110563
			 0.820609 -0.514150 -0.249502
			 0.363633 -0.842514 -0.397419
			 0.533687  0.801260  0.270483
			-0.782180  0.562624  0.267672
			-0.958744 -0.273731 -0.076684
			 0.986177 -0.070716  0.149846
			 0.859923 -0.498810  0.108259
			 0.138473 -0.937880 -0.318130
			-0.704693 -0.550346 -0.447802
			 0.214987  0.916921  0.336208
			-0.893660  0.448288 -0.020248
			 0.885564 -0.114758  0.450118
			 0.419627  0.805852  0.417751
			 0.111349 -0.992920  0.041364
			-0.699167 -0.576210 -0.423258
			-0.907548  0.197938 -0.370376
			 0.917874 -0.373231 -0.134931
			 0.922255  0.371742 -0.106081
			-0.338199  0.776684 -0.531397
			 0.226602 -0.859435 -0.458283
			-0.518895 -0.166468 -0.838472
			-0.288696  0.782532  0.551633
			-0.530944  0.153458  0.833396
			-0.135618  0.794836  0.591476
			 0.633880  0.707930 -0.311498
			-0.372743  0.835385  0.403974
			-0.663673  0.258103  0.702083
			 0.623816  0.778208 -0.072427
			-0.622604 -0.267763  0.735301
			-0.524913 -0.334561  0.782647
			-0.415659  0.123117  0.901149
			 0.578666  0.664509 -0.472836
			 0.045032  0.850342  0.524300
			 0.818661 -0.297424 -0.491256
			 0.663112 -0.229277 -0.712541
			-0.829111  0.223743  0.512361
			 0.576664  0.795376  0.186642
			-0.340592  0.890786  0.300829
			-0.750337 -0.232155  0.618949
			 0.846193 -0.469535 -0.251981
			-0.255594 -0.963254 -0.082540
			-0.250927 -0.949753 -0.187098
			-0.415225 -0.336368  0.845248
			-0.294509 -0.938972 -0.177754
			-0.258583  0.106896  0.960056
			 0.520340 -0.246412 -0.817635
			 0.529604  0.578070 -0.620770
			 0.141578  0.862897  0.485143
			-0.029399 -0.922659 -0.384495
			-0.106152 -0.939316 -0.326218
			-0.220364 -0.954570 -0.200590
			-0.909561 -0.132831  0.393770
			-0.950869  0.268012  0.154978
			 0.683534  0.636139  0.357921
			 0.685191 -0.728334  0.006539
			-0.097436  0.954588  0.281544
			-0.485857 -0.782644 -0.389116
			 0.380218 -0.316113 -0.869199
			 0.227162 -0.255252 -0.939811
			-0.351657 -0.867987 -0.350622
			-0.284383 -0.480392  0.829669
			 0.046370 -0.146029 -0.988193
			-0.036557  0.122700  0.991770
			 0.385122  0.600973 -0.700366
			 0.238811  0.862918  0.445355
			-0.956062 -0.054950 -0.287969
			-0.983236 -0.182103 -0.009210
			-0.792103  0.610379  0.003289
			 0.590947 -0.719297  0.365231
			 0.780558  0.323847  0.534652
			-0.667899 -0.587802 -0.456508
			 0.217239  0.921336  0.322409
			-0.849588  0.211231 -0.483304
			 0.231660  0.586855 -0.775845
			-0.170461 -0.071700 -0.982752
			-0.386941 -0.896496 -0.215807
			-0.046170 -0.407635  0.911977
			 0.033637  0.557121 -0.829750
			 0.131830  0.027330  0.990896
			 0.319821  0.822196  0.470860
			-0.602776  0.761939 -0.236875
			-0.552571 -0.470648 -0.687863
			 0.960333 -0.203354 -0.190809
			 0.763529  0.644909 -0.033410
			-0.762396  0.214434 -0.610549
			-0.003572  0.965617 -0.259946
			-0.319877  0.475225 -0.819658
			-0.177619  0.474778 -0.861996
			-0.398166 -0.027484 -0.916901
			-0.452293 -0.890497 -0.049455
			 0.130615 -0.512882  0.848464
			 0.454012  0.853614  0.255374
			 0.383259 -0.022587  0.923365
			-0.328512  0.522819 -0.786601
			 0.526706  0.842733  0.111274
			-0.603701 -0.041408 -0.796134
			-0.451564 -0.892204  0.007822
			 0.316659 -0.522986  0.791336
			 0.556299 -0.086510  0.826467
			-0.464171  0.582436 -0.667318
			 0.593475  0.803512 -0.046437
			 0.745664 -0.078640  0.661665
			-0.749907 -0.061457 -0.658683
			-0.491081 -0.867191  0.082577
			 0.482620 -0.484847  0.729384
			-0.530504  0.602284 -0.596507
			 0.539193  0.840617 -0.051317
			 0.853664  0.016853  0.520551
			 0.653462 -0.393064  0.646906
			-0.841808 -0.096127 -0.531148
			-0.391567 -0.900978  0.186854
			-0.333708  0.153587 -0.930081
			 0.511326  0.569817 -0.643315
			 0.968974  0.171063  0.178400
			 0.899384 -0.214412 -0.380966
			 0.306024 -0.951931 -0.013268
			-0.505254 -0.195498 -0.840535
			 0.287408  0.525616  0.800703
			 0.415789  0.010342  0.909403
			 0.439015  0.458651  0.772596
			 0.091201  0.471503  0.877136
			 0.174257 -0.035797  0.984049
			 0.237272  0.955782  0.173732
			 0.215797  0.976121  0.024883
			 0.004990 -0.876715  0.480984
			 0.560091 -0.210233  0.801312
			 0.007545 -0.864426  0.502703
			 0.315208  0.917180  0.243774
			 0.624825  0.389093  0.676905
			-0.121311 -0.173034  0.977417
			 0.294798  0.940908  0.166693
			-0.176563  0.325924  0.928762
			-0.199139 -0.897197  0.394185
			 0.117133  0.455126 -0.882689
			 0.336944  0.345476 -0.875851
			-0.049177  0.450558 -0.891392
			-0.298253 -0.900058  0.317712
			-0.590083 -0.512221 -0.624045
			-0.865435 -0.178213 -0.468255
			 0.684784 -0.406290  0.604979
			-0.440613 -0.560103 -0.701530
			-0.091955  0.733542 -0.673394
			 0.457616  0.834843  0.305981
			 0.847466  0.231486  0.477719
			-0.321095 -0.916780  0.237512
			-0.329704 -0.156530  0.931018
			 0.471291  0.265489 -0.841071
			 0.201492  0.922872  0.328188
			-0.315276  0.337400  0.886996
			-0.269982 -0.557444 -0.785090
			 0.008414 -0.536115 -0.844103
			-0.083401 -0.440649 -0.893797
			 0.050751 -0.690127 -0.721907
			-0.966486 -0.011494 -0.256463
			-0.144570 -0.926517  0.347370
			-0.071723  0.818512 -0.569994
			-0.424953  0.681919 -0.595316
			-0.697577  0.586538 -0.411533
			 0.785032 -0.439389  0.436649
			 0.775516  0.511770  0.369685
			 0.951837  0.032972  0.304827
			-0.403476 -0.902804  0.148835
			-0.367864  0.102969  0.924161
			 0.191778 -0.610684 -0.768301
			 0.630080  0.186982 -0.753683
			 0.174793  0.889555  0.422066
			-0.356878  0.467817  0.808570
			-0.505673 -0.759509  0.409194
			-0.634402 -0.737016  0.233113
			-0.664535  0.071507 -0.743828
			-0.655230 -0.335554 -0.676814
			 0.457537 -0.888387 -0.037792
			 0.631444  0.772899 -0.062501
			-0.353451  0.799586 -0.485526
			 0.775090 -0.381296 -0.503834
			 0.922597 -0.116275 -0.367825
			-0.526315  0.165697  0.833988
			 0.235038 -0.676983 -0.697461
			-0.469998 -0.856204 -0.214515
			 0.787196  0.231169 -0.571737
			 0.040815  0.887922  0.458180
			-0.504783  0.486946  0.712796
			-0.610721  0.294435  0.735070
			 0.321982 -0.821727 -0.470204
			-0.872934 -0.468288  0.136725
			 0.950864  0.143309 -0.274445
			 0.150417  0.897996  0.413496
			-0.683903  0.500549  0.530780
			 0.690945 -0.675845 -0.256572
			-0.554226 -0.798122 -0.236294
			-0.922785  0.353266  0.153854
			 0.990393  0.132582  0.039281
			 0.062338  0.924869  0.375142
			 0.568219 -0.819287  0.076786
			-0.880558  0.429360 -0.200667
			-0.821741 -0.441493 -0.360315
			 0.053693  0.984091  0.169356
			 0.941147  0.080242  0.328336
			-0.267595 -0.962736  0.039151
			 0.676597 -0.566065  0.470943
			 0.119195  0.991301  0.055804
			-0.778353  0.380005 -0.499763
			-0.876690 -0.199522 -0.437729
			 0.854887 -0.000854  0.518814
			-0.651228 -0.179053 -0.737457
			 0.279480 -0.832923 -0.477630
			 0.740371 -0.635371  0.219440
			-0.231415  0.740313 -0.631177
			 0.699490  0.284580 -0.655537
			-0.560645  0.363462 -0.744024
			 0.072886  0.703075  0.707371
			-0.133015  0.266054  0.954737
			 0.096969  0.197360  0.975523
			 0.002475  0.711570  0.702611
			 0.481861  0.835438 -0.264296
			 0.381570  0.870341 -0.311306
			 0.272207  0.674231  0.686525
			-0.233241 -0.016080  0.972286
			-0.233877 -0.516339  0.823830
			-0.253286  0.356196  0.899428
			-0.323963 -0.902339  0.284310
			 0.402265  0.109492  0.908952
			 0.589833  0.799135 -0.116106
			-0.132053  0.685794  0.715715
			 0.262780 -0.208791 -0.941994
			 0.441352 -0.225780 -0.868465
			 0.130324 -0.114684 -0.984816
			 0.287711  0.939997 -0.183378
			 0.436904  0.603853  0.666691
			-0.450905  0.016872  0.892413
			-0.428380 -0.853655  0.296251
			-0.364025 -0.931382  0.003667
			-0.414973 -0.701831 -0.578990
			-0.419590  0.358119  0.834083
			-0.570856 -0.389059 -0.723019
			-0.264178 -0.946920  0.183172
			 0.558900  0.000696  0.829235
			 0.602867 -0.287369 -0.744292
			 0.583718  0.810723  0.044735
			-0.180946  0.738054  0.650026
			-0.552291 -0.828475  0.092762
			-0.665979 -0.736062  0.121180
			-0.256538 -0.858252 -0.444514
			-0.108404  0.016966 -0.993962
			 0.198573  0.964347 -0.174941
			 0.545298  0.451620  0.706179
			-0.571756  0.081959  0.816320
			-0.326504 -0.046191 -0.944066
			-0.485263  0.002807 -0.874364
			-0.436548  0.480349  0.760717
			-0.619041  0.069840 -0.782247
			-0.703386 -0.247779 -0.666224
			-0.310140 -0.932378  0.185701
			 0.651890 -0.087980  0.753192
			 0.737702 -0.431405 -0.519313
			 0.212173 -0.843276 -0.493830
			 0.663769  0.742509  0.089956
			-0.158871  0.843623  0.512894
			-0.692699  0.119988  0.711175
			-0.914240  0.065558  0.399834
			 0.223467  0.968390 -0.110826
			 0.682495  0.274300  0.677466
			 0.279496  0.934046 -0.222353
			-0.690116  0.477817  0.543536
			 0.282990  0.919603 -0.272483
			-0.716803  0.283065 -0.637234
			-0.830648 -0.138898 -0.539195
			-0.340727 -0.900165  0.271309
			 0.752213 -0.161264  0.638881
			 0.078400 -0.942324 -0.325391
			 0.853208 -0.495380 -0.163204
			-0.857497 -0.479691 -0.185997
			 0.751375  0.628949  0.199646
			-0.310074  0.888765  0.337567
			-0.860707  0.462279  0.213263
			 0.831893  0.269021  0.485367
			 0.205587  0.954820 -0.214600
			 0.910831  0.294395  0.289342
			-0.833356  0.387297 -0.394359
			-0.933548 -0.189384 -0.304338
			-0.103005 -0.940315  0.324342
			 0.866289 -0.215927  0.450465
			-0.049543 -0.998711 -0.010996
			-0.917089 -0.070571 -0.392387
			 0.909955 -0.337460  0.241046
			-0.737166  0.657010 -0.157875
			 0.687932  0.674464  0.268044
			-0.539379  0.828544 -0.150282
			-0.235202  0.771339 -0.591368
			 0.836363  0.193445 -0.512909
			 0.930342 -0.192835 -0.311896
			-0.502412 -0.139887 -0.853237
			-0.837058 -0.392709 -0.380937
			 0.314338 -0.800262 -0.510659
			 0.174506 -0.924676  0.338411
			-0.884646 -0.304131 -0.353420
			-0.580253  0.646588 -0.495208
			 0.759842 -0.307852  0.572596
			-0.564000  0.622848 -0.542184
			 0.409598  0.912265  0.001549
			-0.610560 -0.323126 -0.723053
			 0.355754 -0.895354 -0.267919
			-0.545796  0.482065 -0.685361
			-0.413718  0.701484 -0.580307
			 0.960634 -0.004992  0.277774
			-0.056396  0.564278 -0.823656
			 0.299963  0.431501  0.850781
			-0.689172 -0.612268  0.387518
			-0.410485 -0.865586  0.286815
			 0.055446  0.619985  0.782652
			 0.514762  0.836251  0.188959
			 0.525249  0.794355  0.305144
			 0.478562  0.176517  0.860128
			 0.010008  0.514857 -0.857218
			-0.715506 -0.586113  0.380163
			 0.283028  0.282667 -0.916512
			-0.216815 -0.953321  0.210167
			-0.158232  0.689338 -0.706948
			 0.511315  0.840612  0.178684
			-0.077199  0.628134  0.774266
			 0.483551 -0.004809 -0.875303
			 0.386430  0.093750 -0.917542
			 0.557098  0.714963  0.422458
			 0.542122  0.146363  0.827455
			 0.529747  0.678966  0.508305
			-0.769201 -0.577925  0.272639
			-0.187937 -0.946655  0.261770
			-0.174410  0.678909 -0.713206
			 0.551995  0.647888  0.524921
			 0.604092  0.787402  0.122763
			 0.628585 -0.186583 -0.755028
			-0.153087  0.706694  0.690759
			-0.835174 -0.523603  0.168295
			 0.555163  0.052521  0.830082
			-0.387309 -0.908884  0.154666
			-0.224740  0.688833 -0.689203
			 0.676035  0.614659  0.406412
			 0.603474 -0.219421  0.766599
			 0.657718  0.742050  0.129496
			 0.744850 -0.435321 -0.505662
			-0.845846 -0.529197  0.067046
			-0.313367  0.765305  0.562236
			-0.492616 -0.869730  0.029989
			-0.291010  0.750157 -0.593782
			 0.769856  0.584312  0.256713
			 0.665528 -0.392483  0.634846
			 0.871306 -0.457983 -0.176286
			 0.578624  0.809132  0.102462
			-0.782989 -0.621748  0.018923
			-0.483475  0.819698  0.307161
			-0.621332 -0.782457  0.041337
			-0.195446  0.769622 -0.607851
			 0.852537  0.505203  0.133982
			 0.660785 -0.534132  0.527319
			-0.552850 -0.833237 -0.008566
			 0.967436 -0.235958  0.091604
			 0.275790  0.931298 -0.237959
			-0.796506  0.528856 -0.293071
			-0.474009 -0.829816 -0.294486
			-0.719478 -0.092355 -0.688347
			 0.867802  0.490240 -0.081145
			 0.491816 -0.715947 -0.495516
			-0.913809  0.134233 -0.383321
			-0.132448 -0.967899  0.213611
			 0.998547  0.038732  0.037472
			-0.166704  0.878348 -0.448012
			-0.335688  0.686584 -0.644915
			-0.192313 -0.913423 -0.358711
			 0.441095  0.634286 -0.634915
			 0.247497 -0.588168 -0.769937
			 0.979010  0.126960 -0.159441
			 0.992615  0.119737 -0.019445
			 0.624811 -0.690268 -0.364884
			-0.955587 -0.282477  0.084026
			 0.232426 -0.622050 -0.747685
			-0.950790 -0.304535 -0.057072
			 0.988982  0.137084 -0.055878
			 0.715624  0.442356  0.540559
			 0.417994 -0.009045  0.908405
			 0.981877 -0.157494  0.105415
			-0.507403 -0.582972  0.634575
			-0.955013 -0.007998  0.296458
			-0.950842  0.004398  0.309644
			 0.250939 -0.707905 -0.660228
			-0.953860 -0.288913 -0.081730
			-0.965685  0.029720  0.258010
			-0.103063  0.576499  0.810572
			 0.987090  0.157298  0.030168
			-0.445102  0.600971  0.663866
			 0.356535 -0.677158 -0.643693
			-0.948247 -0.277969 -0.153495
			-0.978852  0.065512  0.193794
			-0.574851  0.617829  0.536501
			 0.881790  0.399474  0.250732
			 0.729166 -0.559501 -0.394051
			-0.825654 -0.446292 -0.345137
			-0.992480  0.066022  0.103074
			-0.267941  0.696058  0.666116
			 0.920687  0.294768  0.255824
			 0.688686 -0.628701 -0.361173
			-0.543196 -0.696385 -0.469026
			-0.996694  0.067552  0.045139
			-0.231416  0.730886  0.642069
			 0.953024  0.180015  0.243600
			 0.635666 -0.720286 -0.277698
			-0.665046 -0.612318 -0.427529
			-0.990498  0.137517 -0.001482
			-0.079443  0.763867  0.640466
			 0.965257  0.091713  0.244680
			 0.597937 -0.758867 -0.258053
			-0.709711 -0.625086 -0.324929
			-0.982085  0.188439 -0.000111
			-0.005277  0.840813  0.541299
			 0.967781 -0.037502  0.248984
			 0.704662 -0.450482 -0.548196
			-0.554739 -0.251262 -0.793179
			-0.977654  0.173220 -0.119114
			-0.649896  0.592525 -0.475972
			 0.902634  0.168571 -0.396025
			-0.327599 -0.538561  0.776293
			 0.233287 -0.866524  0.441264
			-0.196869 -0.627382  0.753415
			 0.335441  0.314857  0.887888
			-0.423893 -0.440165  0.791561
			-0.434319 -0.847624  0.304796
			 0.265421  0.349149  0.898692
			 0.151874 -0.382411 -0.911426
			 0.654102 -0.083347  0.751800
			 0.979934  0.126750 -0.153832
			 0.513369  0.743941 -0.427790
			 0.536512  0.718263 -0.443005
			-0.686506 -0.693294  0.219212
			-0.527921 -0.379355  0.759861
			 0.386287  0.145004  0.910909
			-0.199655 -0.221147 -0.954584
			 0.689817  0.569980 -0.446402
			-0.287947 -0.182537 -0.940089
			-0.813637 -0.465911  0.347739
			-0.707251 -0.290812  0.644379
			 0.245901  0.240595  0.938960
			 0.878372  0.409726 -0.246144
			-0.448395 -0.148423 -0.881426
			-0.893939 -0.373571  0.247625
			-0.831231 -0.222671  0.509384
			 0.077379  0.513482  0.854605
			 0.864465  0.452442 -0.219079
			-0.070103 -0.439743 -0.895384
			-0.856896 -0.443455  0.262824
			-0.769985 -0.206494  0.603724
			-0.091145  0.605261  0.790792