<?xml version="1.0"?>
<VTKFile type="PolyData" version="0.1" byte_order="LittleEndian" compressor="vtkZLibDataCompressor">
	<PolyData>
		<Piece NumberOfPoints="770" NumberOfVerts="0" NumberOfLines="0" NumberOfStrips="0" NumberOfPolys="1550">
		<PointData Normals="Normals">
		<DataArray type="Float32" Name="Normals" NumberOfComponents="3" format="ascii">
			-0.337243 -0.750324 -0.568578
			-0.982220 -0.149241 -0.113890
			-0.620821 -0.304684 -0.722322
			-0.870071 -0.416347  0.263879
			 0.187797 -0.959823  0.208499
			-0.994628 -0.029445  0.099235
			 0.354970 -0.532094 -0.768682
			 0.541843 -0.705323 -0.457085
			-0.993152  0.114627  0.022575
			-0.950887  0.308079 -0.030030
			 0.494524 -0.361082 -0.790611
			-0.776815 -0.123178 -0.617564
			-0.705288 -0.289587  0.647077
			-0.944345  0.022327  0.328197
			 0.454090 -0.601592  0.657183
			 0.844314 -0.527118 -0.096333
			-0.972285  0.177920  0.151680
			 0.924784 -0.341033 -0.168733
			 0.897447 -0.242143 -0.368723
			-0.900294  0.432927 -0.045212
			-0.898180  0.439109  0.021373
			-0.951515  0.288931  0.105541
			 0.951402 -0.150591 -0.268621
			 0.950925 -0.207511 -0.229520
			 0.449915 -0.301939 -0.840481
			-0.922358  0.041445 -0.384106
			-0.532497 -0.230587  0.814418
			-0.911646  0.013601  0.410752
			-0.965145  0.230914  0.123180
			 0.957206 -0.289258  0.009274
			 0.464371 -0.469678  0.750841
			-0.889983  0.446551 -0.092315
			 0.960309 -0.275958 -0.040659
			-0.858709  0.501321 -0.106280
			-0.945919  0.251230  0.205235
			-0.935294  0.312335  0.166351
			-0.951221  0.207822  0.228012
			 0.961996 -0.200930 -0.184906
			 0.955898 -0.283249 -0.077646
			 0.949620 -0.144902 -0.277895
			 0.317234 -0.222369 -0.921908
			-0.989810  0.140362  0.023965
			-0.934776  0.152079 -0.321040
			-0.529849 -0.266757  0.805047
			-0.903626  0.148192  0.401871
			-0.904123  0.425437  0.039569
			-0.804220  0.582570 -0.117653
			 0.877483 -0.425553  0.221198
			 0.220811 -0.555991  0.801322
			-0.814284  0.578967 -0.041693
			 0.913248 -0.407372 -0.005153
			-0.885455  0.408025  0.222454
			-0.935639  0.228021  0.269417
			-0.914230  0.269618  0.302472
			-0.864061  0.331175  0.379107
			-0.951339  0.222231  0.213465
			 0.955081 -0.158187 -0.250594
			 0.935354 -0.250802 -0.249422
			 0.930617 -0.336303 -0.144403
			 0.938736 -0.225621 -0.260520
			 0.259138 -0.091970 -0.961451
			-0.925453  0.296294  0.236109
			-0.924164  0.271907 -0.268305
			-0.309966 -0.373207  0.874435
			-0.796586  0.285151  0.533048
			-0.783107  0.608847  0.126684
			-0.692399  0.717982 -0.071315
			-0.714848  0.697297  0.052626
			 0.526864 -0.612414  0.589375
			 0.145961 -0.672236  0.725805
			-0.791818  0.496963  0.355039
			 0.819767 -0.549605  0.160984
			-0.792832  0.381231  0.475478
			-0.896108  0.354693  0.266802
			-0.868944  0.386855  0.308675
			-0.816969  0.420326  0.394826
			-0.776936  0.431400  0.458546
			 0.943016 -0.244256 -0.225966
			 0.934240 -0.182594 -0.306358
			 0.881395 -0.302802 -0.362566
			 0.878267 -0.460973 -0.127085
			 0.910148 -0.271939 -0.312538
			 0.467882 -0.029852 -0.883287
			-0.845934  0.299136  0.441490
			-0.935434  0.274828  0.222335
			-0.879137  0.247886  0.407028
			-0.937248  0.271342  0.218950
			-0.941268  0.288306 -0.175770
			-0.245304 -0.340626  0.907634
			-0.638399  0.284225  0.715306
			-0.688634  0.674015  0.267370
			-0.582470  0.811367 -0.049115
			-0.607563  0.791744  0.063312
			-0.686820  0.541796  0.484495
			 0.381149 -0.734573  0.561363
			 0.179536 -0.739754  0.648483
			-0.688341  0.377260  0.619566
			 0.568000 -0.719881  0.398933
			-0.718202  0.416092  0.557721
			-0.854120  0.319054  0.410710
			-0.850554  0.263425  0.455154
			-0.868472  0.201541  0.452921
			-0.879325  0.180940  0.440509
			 0.894664 -0.353739 -0.272845
			 0.925946 -0.266559 -0.267525
			 0.877121 -0.193729 -0.439463
			 0.770913 -0.364678 -0.522211
			 0.743700 -0.668047  0.024947
			 0.837897 -0.269817 -0.474477
			-0.902317  0.276722 -0.330529
			 0.146451  0.098727 -0.984279
			-0.771548 -0.045839  0.634518
			-0.837195 -0.163632  0.521851
			-0.839197  0.066281  0.539773
			-0.210529 -0.315786  0.925179
			-0.484280  0.186166  0.854877
			-0.631934  0.679700  0.372380
			-0.526953  0.849887 -0.003514
			-0.589267  0.804952  0.069400
			-0.666227  0.551700  0.501765
			-0.611451  0.354060  0.707650
			 0.496999 -0.820781  0.281621
			 0.200975 -0.795010  0.572335
			-0.663430  0.347911  0.662434
			 0.528932 -0.779198  0.336276
			-0.862874  0.194916  0.466321
			-0.805779 -0.360339  0.469974
			-0.774988 -0.453543  0.440105
			-0.857919 -0.366838  0.359728
			-0.906575 -0.237561  0.348837
			 0.845554 -0.345831 -0.406743
			 0.859624 -0.406271 -0.309823
			 0.864708 -0.329032 -0.379496
			 0.722028 -0.239503 -0.649087
			 0.628704 -0.360646 -0.688960
			 0.667823 -0.740957 -0.070670
			 0.773082 -0.353662 -0.526562
			-0.823324 -0.115119  0.555774
			-0.961564  0.270052 -0.049672
			-0.679160  0.450393 -0.579559
			 0.054339  0.185688 -0.981105
			-0.697179 -0.430773  0.573041
			-0.535399 -0.745994  0.396032
			-0.344425 -0.902131  0.259867
			-0.285038 -0.288942  0.913929
			-0.518533  0.173822  0.837203
			-0.605587  0.722252  0.334089
			-0.526889  0.847572 -0.063324
			-0.587786  0.796764  0.140264
			-0.661621  0.540280  0.519957
			-0.636054  0.374693  0.674567
			-0.649125  0.279611  0.707428
			 0.517959 -0.851845  0.077970
			 0.155982 -0.836402  0.525454
			-0.854612  0.165019  0.492348
			 0.442731 -0.860817  0.250966
			-0.948317 -0.113803  0.296215
			-0.248053 -0.929288  0.273666
			-0.438045 -0.828682  0.348428
			-0.739399 -0.578439  0.344526
			-0.877885 -0.369592  0.304499
			 0.761958 -0.438848 -0.476270
			 0.826679 -0.401702 -0.394002
			 0.811927 -0.439010 -0.384766
			 0.757183 -0.351828 -0.550355
			 0.579418 -0.164090 -0.798342
			 0.583954 -0.300289 -0.754204
			 0.575447 -0.800288 -0.168521
			 0.652778 -0.487030 -0.580245
			-0.730863 -0.591822  0.339981
			-0.925142 -0.166658  0.341084
			-0.837965  0.545056  0.026995
			-0.556022  0.827610 -0.076820
			-0.549024  0.803827 -0.228987
			-0.691541  0.646549 -0.322095
			-0.762043  0.640139  0.097532
			-0.694073  0.696079 -0.183677
			 0.372822  0.044974 -0.926812
			-0.465437 -0.878873  0.104649
			-0.204765 -0.972835  0.107995
			-0.198284 -0.931394  0.305268
			-0.420121 -0.286860  0.860935
			-0.539224  0.125779  0.832717
			-0.594001  0.699876  0.396657
			-0.523903  0.850986 -0.036713
			-0.611767  0.783406  0.109620
			-0.675158  0.564743  0.474581
			-0.647229  0.378393  0.661750
			-0.674373  0.232005  0.700996
			-0.829643  0.028639  0.557559
			 0.506413 -0.862241  0.009300
			 0.118739 -0.869169  0.480048
			-0.953961 -0.118517  0.275521
			 0.372274 -0.893210  0.252167
			-0.960238 -0.194303  0.200474
			-0.295817 -0.794300  0.530641
			-0.605201 -0.598664  0.524722
			-0.781235 -0.470297  0.410478
			-0.920401 -0.236952  0.310991
			 0.595366 -0.623976 -0.506156
			 0.738078 -0.489413 -0.464452
			 0.805142 -0.437343 -0.400596
			 0.776758 -0.436166 -0.454320
			 0.661520 -0.267988 -0.700410
			 0.529895 -0.085979 -0.843694
			 0.574118 -0.299684 -0.761956
			 0.587591 -0.792324 -0.164197
			 0.568094 -0.415286 -0.710498
			-0.974659 -0.124524  0.185832
			-0.661883 -0.749460  0.014849
			-0.545104  0.837063  0.046771
			-0.616287  0.786547  0.039169
			-0.559271  0.816319  0.144358
			-0.586044  0.717701  0.376109
			-0.626933  0.563719  0.537751
			-0.673803  0.446130  0.589032
			-0.565248  0.788824 -0.241354
			 0.402364  0.044636 -0.914391
			-0.888198 -0.456049  0.055884
			-0.831871 -0.391425  0.393417
			-0.751144 -0.149968  0.642878
			-0.388093 -0.346609  0.853959
			-0.530949  0.072411  0.844305
			-0.578636  0.641476  0.503675
			-0.549640  0.833654  0.054010
			-0.645282  0.753624  0.125147
			-0.711832  0.560013  0.423887
			-0.672972  0.405239  0.618781
			-0.693274  0.187133  0.695955
			-0.825313 -0.053618  0.562124
			-0.886560 -0.255416  0.385713
			 0.507696 -0.861331 -0.018809
			 0.179067 -0.914673  0.362366
			-0.917400 -0.272273  0.290250
			 0.426004 -0.865406  0.263803
			-0.923646 -0.181258  0.337673
			-0.813316  0.157583  0.560076
			-0.842535 -0.119550  0.525207
			-0.874574 -0.258276  0.410383
			-0.898967 -0.168821  0.404175
			 0.461309 -0.572093 -0.678162
			 0.468574 -0.696829 -0.543017
			 0.693104 -0.544734 -0.472093
			 0.761956 -0.465265 -0.450502
			 0.709033 -0.410024 -0.573718
			 0.594554 -0.246041 -0.765486
			 0.481978 -0.080409 -0.872486
			 0.510293 -0.258368 -0.820272
			 0.608176 -0.767180 -0.203853
			 0.575662 -0.283444 -0.766989
			-0.967175  0.232058  0.103542
			-0.844896  0.529394 -0.076761
			-0.417918  0.907047  0.051086
			-0.517775  0.854824 -0.034431
			-0.375595  0.911142  0.169554
			-0.454153  0.814489  0.361043
			-0.587682  0.674164  0.447362
			-0.516321  0.570298  0.638885
			-0.593115  0.409700  0.693080
			-0.644978  0.563147  0.516593
			-0.589793  0.807549  0.002942
			 0.201687  0.723197 -0.660537
			-0.798502  0.589490  0.122047
			-0.687411  0.696690  0.205156
			-0.441954  0.895502  0.052470
			-0.474254 -0.338222  0.812828
			-0.552680  0.128051  0.823497
			-0.550234  0.624607  0.554174
			-0.543544  0.796786  0.263991
			-0.677503  0.715484  0.170507
			-0.769537  0.536366  0.346590
			-0.772753  0.432238  0.464783
			-0.757599  0.210287  0.617918
			-0.735817 -0.154685  0.659277
			-0.730209 -0.342919  0.590933
			-0.670655 -0.499991  0.547933
			 0.554429 -0.830790 -0.048948
			 0.113076 -0.926881  0.357917
			-0.662992 -0.444792  0.602164
			 0.417955 -0.888655  0.188697
			-0.647451 -0.392567  0.653221
			-0.595012  0.745815  0.299533
			-0.869377  0.338755  0.359762
			-0.897355 -0.210227  0.388020
			-0.749469 -0.398056  0.529007
			 0.609516 -0.321653 -0.724589
			 0.387667 -0.671810 -0.631178
			 0.417825 -0.748043 -0.515610
			 0.647727 -0.582067 -0.491577
			 0.680832 -0.481228 -0.552166
			 0.640984 -0.391346 -0.660294
			 0.556316 -0.229953 -0.798520
			 0.459027 -0.058811 -0.886474
			 0.542877 -0.235467 -0.806127
			 0.578267 -0.760549 -0.295250
			 0.694406  0.560105 -0.451755
			-0.362208  0.892974 -0.267213
			-0.355560  0.915172 -0.189838
			-0.169377  0.985171 -0.027386
			 0.122712  0.956632 -0.264192
			-0.114981  0.978085  0.173575
			-0.288774  0.865760  0.408741
			-0.406063  0.718042  0.565268
			-0.543285  0.302662  0.783095
			-0.462924  0.487707  0.740164
			-0.604736  0.329227  0.725192
			-0.289116  0.644320  0.708000
			-0.182828  0.979486  0.084746
			-0.325209  0.944692 -0.042377
			 0.057582  0.963211 -0.262507
			 0.155370  0.980190 -0.122835
			-0.461488 -0.337097  0.820606
			-0.605288  0.086016  0.791345
			-0.642007  0.621409  0.449084
			-0.614787  0.734151  0.288201
			-0.727044  0.623715  0.287030
			-0.801647  0.474827  0.363182
			-0.819567  0.397297  0.412874
			-0.834249  0.319491  0.449393
			-0.792579  0.082675  0.604139
			-0.640206 -0.246713  0.727509
			-0.578981 -0.458967  0.673893
			-0.472698 -0.552468  0.686539
			 0.430294 -0.888100 -0.161632
			 0.043525 -0.974385  0.220635
			-0.290182 -0.420164  0.859800
			 0.366648 -0.928590  0.057353
			 0.122108 -0.540844  0.832212
			 0.416273  0.766194 -0.489554
			-0.887993 -0.150994  0.434360
			-0.653002  0.661985  0.367920
			 0.143266  0.907892 -0.393963
			-0.645412 -0.524816  0.554988
			 0.904703  0.425931  0.009818
			 0.647233 -0.403332 -0.646849
			 0.379018 -0.746373 -0.547059
			 0.402438 -0.754207 -0.518860
			 0.617866 -0.574087 -0.537277
			 0.650493 -0.450259 -0.611658
			 0.600081 -0.364012 -0.712318
			 0.517433 -0.203644 -0.831140
			 0.448394 -0.045478 -0.892678
			 0.570955 -0.325738 -0.753594
			 0.576890 -0.766779 -0.281508
			 0.327335  0.829657 -0.452240
			 0.371708  0.841704 -0.391622
			 0.265513  0.963236 -0.040974
			 0.597883  0.763983 -0.242624
			 0.185184  0.955340  0.230287
			-0.187172  0.822377  0.537274
			-0.369310  0.669685  0.644308
			-0.147736  0.508259  0.848438
			-0.054357  0.415540  0.907949
			 0.067310  0.575762  0.814842
			 0.497397  0.752298 -0.432023
			 0.642473  0.687993 -0.337484
			 0.753301  0.417406 -0.508242
			-0.442937 -0.336807  0.830884
			-0.693917  0.112337  0.711238
			-0.755286  0.543451  0.366339
			-0.732583  0.662858  0.154728
			-0.778250  0.566690  0.270533
			-0.798657  0.484460  0.356995
			-0.783930  0.472078  0.403232
			-0.775190  0.316583  0.546677
			-0.793749  0.217190  0.568147
			-0.772058 -0.031430  0.634775
			-0.694247 -0.325373  0.641991
			-0.609750 -0.452668  0.650612
			-0.316465 -0.170364  0.933181
			 0.390672 -0.878644 -0.274517
			 0.238961 -0.928405  0.284536
			 0.421981  0.497744  0.757749
			 0.413663 -0.902208 -0.122079
			 0.722442  0.560110  0.405405
			 0.735006 -0.619209  0.276308
			 0.054665 -0.797126  0.601333
			 0.981980 -0.082800  0.169883
			 0.734354  0.295526 -0.611055
			 0.698689  0.220350 -0.680647
			 0.729392  0.221194 -0.647349
			-0.939499 -0.050175  0.338857
			-0.689922  0.637951  0.342091
			 0.232298  0.892491 -0.386649
			 0.564274  0.017971 -0.825392
			-0.611870 -0.688477  0.389377
			 0.964512  0.254677  0.069681
			 0.530903 -0.455248 -0.714766
			 0.235600 -0.766184 -0.597875
			 0.341492 -0.769296 -0.539970
			 0.564727 -0.574687 -0.592300
			 0.609223 -0.431372 -0.665407
			 0.526484 -0.335766 -0.781073
			 0.447185 -0.207770 -0.869975
			 0.436878 -0.134577 -0.889397
			 0.504430 -0.600730 -0.620220
			 0.472185 -0.840495 -0.265726
			 0.735217  0.581541 -0.348233
			 0.790558  0.481244 -0.378711
			 0.444731  0.893484  0.062459
			 0.563333  0.819822 -0.102702
			 0.007774  0.884892  0.465732
			-0.308291  0.696142  0.648338
			 0.104905  0.745978  0.657657
			 0.979446  0.189964 -0.067815
			 0.960295  0.172808 -0.219021
			 0.770579  0.446426 -0.454875
			 0.745320  0.478859 -0.463888
			 0.673912  0.499264 -0.544589
			-0.249265 -0.506960  0.825141
			-0.715361  0.005540  0.698733
			-0.828117  0.428116  0.361855
			-0.785616  0.613009  0.083836
			-0.793782  0.602785  0.080999
			-0.820959  0.524499  0.225672
			-0.802856  0.544427  0.242941
			-0.840840  0.406680  0.357210
			-0.859975  0.134741  0.492227
			-0.866030  0.083323  0.493001
			-0.846653 -0.100265  0.522614
			-0.773791 -0.169960  0.610215
			-0.581024 -0.011414  0.813806
			 0.076988  0.757399  0.648397
			 0.438248 -0.845487 -0.305106
			 0.152040 -0.931692  0.329901
			 0.303846 -0.925468 -0.226244
			 0.240288  0.948658  0.205692
			 0.019991  0.997825  0.062813
			 0.645359  0.747560  0.157053
			 0.654192 -0.738085 -0.165117
			 0.853228 -0.057432 -0.518367
			 0.188571 -0.946631  0.261400
			 0.834283  0.147726 -0.531178
			 0.903152  0.390448 -0.178514
			 0.835990  0.277537 -0.473385
			 0.725576  0.519648 -0.451116
			 0.682027 -0.338259 -0.648398
			-0.947392 -0.094313  0.305864
			-0.619821  0.728421  0.291934
			 0.120125  0.961756 -0.246161
			 0.435823  0.056477 -0.898259
			 0.458847 -0.566034 -0.684883
			-0.252618 -0.937400  0.239720
			 0.403323 -0.529352 -0.746402
			 0.201819 -0.807877 -0.553719
			 0.278108 -0.786596 -0.551291
			 0.455295 -0.605594 -0.652658
			 0.485264 -0.434989 -0.758487
			 0.394729 -0.332691 -0.856449
			 0.348646 -0.256773 -0.901395
			 0.385355 -0.414131 -0.824619
			 0.190054 -0.834368 -0.517406
			 0.155151 -0.954833 -0.253422
			 0.610031  0.791129 -0.044461
			 0.585787  0.803898 -0.102965
			 0.111771  0.956209  0.270503
			 0.144497  0.949046  0.280059
			-0.263846  0.764555  0.588082
			-0.083338  0.767124  0.636063
			 0.954829  0.269055 -0.126140
			 0.438746 -0.650928 -0.619511
			 0.531741  0.817995 -0.219398
			 0.490456  0.831852 -0.259759
			 0.436446  0.856009 -0.277063
			-0.332894 -0.677387  0.655994
			-0.623220 -0.228036  0.748062
			-0.829917  0.296903  0.472320
			-0.799063  0.548206  0.246917
			-0.851148  0.514800  0.102609
			-0.853980  0.520222  0.009344
			-0.842339  0.537976  0.032370
			-0.907902  0.409096  0.091399
			-0.950988  0.222831  0.214402
			-0.946213  0.135237  0.293927
			-0.926996  0.231129  0.295394
			-0.869935  0.301258  0.390456
			-0.692100  0.524487  0.495894
			-0.302776  0.820199  0.485388
			-0.051869  0.979013  0.197086
			 0.104070 -0.993786 -0.039478
			 0.087780 -0.913948  0.396224
			-0.402028  0.890331  0.213740
			-0.262231  0.964941 -0.011084
			-0.439419  0.893998  0.087631
			 0.255037  0.961164  0.105451
			 0.430386 -0.879486 -0.203155
			 0.346050 -0.936207  0.061372
			 0.707500  0.668758 -0.228489
			 0.295073  0.920793 -0.255093
			-0.702463 -0.425871  0.570245
			-0.583745  0.732730  0.349784
			 0.030001  0.973646 -0.226080
			 0.222977  0.165859 -0.960610
			 0.226005 -0.664034 -0.712728
			 0.212741 -0.953924 -0.211590
			 0.144828 -0.950516  0.274853
			 0.180036 -0.830341 -0.527372
			 0.256738 -0.790742 -0.555710
			 0.386997 -0.593986 -0.705275
			 0.357911 -0.413728 -0.837096
			 0.293567 -0.336516 -0.894749
			 0.294550 -0.365770 -0.882866
			 0.230904 -0.633089 -0.738838
			 0.065817 -0.864628 -0.498082
			-0.004569 -0.980674 -0.195594
			 0.109530  0.929087  0.353272
			 0.089232  0.968398  0.232902
			-0.179227  0.874046  0.451576
			-0.102929  0.881866  0.460128
			 0.069546  0.778977  0.623184
			 0.958976  0.225487  0.171817
			 0.443683 -0.715203 -0.540027
			 0.084690  0.989408  0.117896
			 0.004636  0.996354  0.085191
			-0.176174  0.978948 -0.103069
			-0.303041 -0.801871  0.514947
			-0.571551 -0.256272  0.779521
			-0.357346 -0.570254  0.739672
			-0.785285  0.243559  0.569216
			-0.816618  0.415873  0.400230
			-0.736076  0.596595  0.319791
			-0.730486  0.607789  0.311422
			-0.771006  0.564674  0.294437
			-0.727969  0.606555  0.319611
			-0.676244  0.640531  0.363887
			-0.639454  0.708214  0.299219
			-0.513913  0.813948  0.270892
			-0.574791  0.807156  0.134587
			-0.180784 -0.967711  0.175650
			 0.029225 -0.700403  0.713149
			-0.475359  0.875725  0.084499
			-0.510930  0.859143  0.028699
			-0.445888  0.890464  0.090866
			-0.242535  0.967871  0.066346
			 0.282261 -0.953620  0.104583
			-0.363854  0.927200 -0.088938
			-0.275510 -0.541212  0.794471
			-0.431124  0.641205  0.634813
			-0.012062  0.943260 -0.331836
			 0.067148  0.109590 -0.991706
			 0.027793 -0.739815 -0.672236
			 0.016372 -0.982305 -0.186571
			 0.063483 -0.984339  0.164458
			 0.227741 -0.903411  0.363295
			 0.174508 -0.847096 -0.501972
			 0.209884 -0.773014 -0.598663
			 0.235179 -0.573300 -0.784868
			 0.224012 -0.428611 -0.875278
			 0.142040 -0.360969 -0.921698
			 0.199087 -0.492431 -0.847275
			 0.200004 -0.674416 -0.710747
			 0.109559 -0.872362 -0.476426
			-0.121163 -0.962420 -0.243038
			-0.053478  0.912615  0.405308
			-0.136433  0.931025  0.338495
			 0.491437  0.708333  0.506709
			 0.431612  0.873428  0.225466
			 0.982152 -0.165380  0.089591
			 0.483341 -0.761074 -0.432606
			-0.235145  0.952449  0.193774
			-0.362086  0.931856  0.023212
			-0.328389  0.944537  0.003257
			 0.089456 -0.994782  0.049062
			-0.012030 -0.637473  0.770378
			 0.208225 -0.305830  0.929037
			 0.015068 -0.153426  0.988045
			 0.023909  0.007261  0.999688
			 0.086057  0.189308  0.978139
			 0.026673  0.375547  0.926419
			-0.080673  0.510258  0.856229
			 0.056926  0.313453  0.947896
			-0.281368  0.688496  0.668435
			 0.140973  0.415548  0.898580
			-0.179700  0.505683  0.843797
			-0.484387  0.395288  0.780459
			-0.440384  0.230940  0.867599
			 0.194838 -0.668118  0.718092
			 0.136530  0.641348  0.755005
			 0.101754  0.480488  0.871078
			-0.242560  0.935640  0.256403
			-0.379213  0.925205 -0.013928
			-0.269632  0.932930  0.238623
			-0.062381  0.929402  0.363758
			-0.054203  0.996931  0.056490
			-0.127267 -0.560616  0.818238
			-0.355669  0.545420  0.758958
			 0.085148  0.995234 -0.047532
			 0.313063  0.453581 -0.834420
			 0.126564 -0.811113 -0.571032
			 0.136828 -0.985746  0.097889
			-0.075547 -0.953801  0.290785
			 0.078299 -0.889617  0.449946
			 0.150762 -0.831215 -0.535119
			 0.091020 -0.716360 -0.691769
			 0.095909 -0.592117 -0.800124
			 0.115920 -0.439334 -0.890813
			 0.197865 -0.414697 -0.888187
			 0.252191 -0.543156 -0.800863
			 0.227849 -0.712510 -0.663638
			 0.274128 -0.926516 -0.257725
			 0.025315  0.994127  0.105217
			-0.280408  0.947294  0.154938
			 0.906771 -0.235872 -0.349472
			 0.241891  0.628969 -0.738842
			 0.371069 -0.773530 -0.513770
			-0.382561  0.921616  0.065348
			-0.373307  0.922645  0.096790
			 0.087355  0.947030  0.309036
			 0.602817 -0.465700  0.647870
			 0.662362 -0.578010  0.476635
			 0.869388 -0.445616  0.213519
			 0.761824 -0.609437  0.219569
			 0.858109 -0.215387  0.466109
			 0.928684 -0.069566  0.364289
			 0.932867 -0.081604  0.350857
			 0.736977 -0.399341  0.545336
			 0.676087 -0.463504  0.572774
			 0.666406 -0.359880  0.652985
			 0.251640  0.473996  0.843804
			 0.139074  0.950970  0.276251
			 0.192400  0.845675  0.497812
			 0.347982  0.560112  0.751787
			 0.699796  0.641222  0.314833
			-0.063119  0.631233  0.773020
			-0.003791 -0.669379  0.742911
			 0.298866  0.953339 -0.042715
			 0.772701  0.558446 -0.301781
			 0.462621 -0.735384 -0.495169
			 0.162527 -0.975502  0.148261
			-0.042067 -0.882960  0.467559
			 0.112631 -0.748608 -0.653377
			 0.015070 -0.675822 -0.736910
			 0.027854 -0.574516 -0.818020
			 0.269717 -0.443778 -0.854584
			 0.351439 -0.379279 -0.855943
			 0.340001 -0.511579 -0.789104
			 0.448905 -0.805830 -0.386164
			-0.396963  0.830395 -0.390979
			-0.468043  0.882347  0.048993
			 0.105406 -0.659667 -0.744129
			-0.188161 -0.164381 -0.968284
			-0.326416  0.872495  0.363601
			-0.621611  0.742059  0.250896
			 0.022214  0.818021  0.574760
			 0.395036  0.387641  0.832875
			 0.598697 -0.404910 -0.691093
			 0.448667 -0.604921 -0.657851
			 0.773505 -0.190006 -0.604639
			 0.834731 -0.030410 -0.549817
			 0.759470 -0.313929 -0.569785
			 0.762131 -0.550566 -0.340638
			 0.873522 -0.445193 -0.196884
			 0.732027 -0.005645  0.681252
			 0.447144  0.651020  0.613381
			 0.475794  0.549487  0.686792
			 0.829135  0.232729  0.508304
			 0.991708 -0.124018 -0.033687
			 0.904053 -0.426071  0.033941
			 0.085947  0.428276  0.899551
			 0.223178  0.796634  0.561753
			-0.027539 -0.279291  0.959812
			 0.615221  0.616678  0.491134
			 0.855568 -0.339644  0.390699
			 0.240358 -0.723758  0.646840
			-0.049996 -0.927840  0.369611
			-0.064192 -0.691550 -0.719470
			-0.020625 -0.670643 -0.741493
			 0.247399 -0.588740 -0.769532
			 0.392719 -0.419838 -0.818234
			 0.383534 -0.346890 -0.855903
			-0.713099  0.604344 -0.355328
			-0.275224  0.066771 -0.959059
			 0.106124 -0.725052 -0.680468
			-0.098779 -0.725395 -0.681208
			 0.161693 -0.491053 -0.855992
			-0.206380  0.836255  0.508020
			-0.285411  0.946072  0.153258
			-0.356346  0.833306 -0.422632
			-0.028456  0.660221  0.750532
			 0.019687  0.061905  0.997888
			 0.359724 -0.541358  0.759954
			 0.416207 -0.292902 -0.860802
			 0.565194 -0.182064 -0.804617
			 0.584840 -0.657232 -0.475404
			 0.556667 -0.510988 -0.654991
			 0.742133 -0.619148 -0.256698
			 0.577585 -0.811454 -0.089095
			 0.202061 -0.943941  0.261050
			-0.053827 -0.472120  0.879889
			 0.067330 -0.019756  0.997535
			 0.575040  0.382208  0.723358
			 0.186209 -0.886605  0.423389
			 0.260872 -0.708594 -0.655622
			 0.441448 -0.487987 -0.752989
			-0.091432  0.158149 -0.983173
			 0.093746 -0.438799 -0.893682
			 0.255825 -0.896425 -0.361905
			 0.220003 -0.851896 -0.475260
			 0.219229 -0.924851 -0.310788
			-0.194219 -0.886806 -0.419349
			-0.116765 -0.970771 -0.209689
			 0.459651  0.861423  0.216036
			 0.334616  0.927321 -0.167652
			 0.702133  0.596104 -0.389448
			 0.488959  0.455662 -0.743835
			 0.561395  0.669530  0.486380
			-0.082958 -0.726150  0.682514
			 0.265649 -0.165247  0.949802
			 0.463120 -0.651658 -0.600718
			 0.485784 -0.836465 -0.253653
			 0.384902 -0.834455 -0.394380
			-0.262381 -0.860343  0.436998
			 0.467794 -0.164907 -0.868317
			 0.041257 -0.879322 -0.474438
			-0.264753 -0.856355  0.443354
			 0.644134  0.755120  0.122008
			 0.692500  0.709329 -0.131515
			 0.680014  0.610468 -0.406091
			 0.623418  0.221441 -0.749876
			-0.140821 -0.772314  0.619435
			 0.274322 -0.367186 -0.888775
			 0.327748  0.679225  0.656685
			-0.483484 -0.080189  0.871672
			-0.331515 -0.804957 -0.492079
			-0.699606 -0.671265  0.244857
			-0.729376 -0.370742  0.574944
			 0.593330  0.802897  0.057581
			 0.712525  0.649428 -0.265616
			 0.754263  0.545278 -0.365732
			 0.726282  0.316829 -0.610028
			 0.310879 -0.385983 -0.868545
			-0.353554 -0.800969 -0.483166
			 0.163520  0.761655  0.627011
			-0.600934  0.244376  0.761024
			-0.784088 -0.590316  0.191662
			-0.834006 -0.188931  0.518400
			 0.609049  0.755232  0.242247
			 0.729307  0.661479 -0.174804
			 0.731374  0.532706 -0.425813
			 0.659934  0.280850 -0.696857
			 0.172381 -0.424713 -0.888765
			-0.368564 -0.823567 -0.431159
			-0.729877 -0.677632  0.089965
			 0.290547  0.691943  0.660907
			-0.397701  0.162161  0.903071
			-0.752719 -0.362392  0.549624
			 0.745841  0.493426  0.447494
			 0.883110  0.456838  0.106848
			 0.894593  0.383318 -0.229720
			 0.819319  0.023308 -0.572864
			 0.265598 -0.703802 -0.658878
			-0.423366 -0.858536 -0.289269
			-0.579418 -0.814184  0.037138
			-0.684126 -0.508969  0.522419
			 0.495433  0.396339  0.772956
			-0.098893 -0.072831  0.992429
			 0.852742  0.090070  0.514508
			 0.960956  0.014254  0.276333
			 0.997506  0.060454  0.036441
			 0.943355 -0.281628 -0.175407
			 0.543754 -0.791164 -0.279986
			-0.163354 -0.982281 -0.091872
			-0.413017 -0.898149  0.150816
			-0.458583 -0.696445  0.551965
			 0.121560 -0.358412  0.925616
			 0.515985  0.167784  0.840005
			 0.774347 -0.505147  0.381069
			 0.861154 -0.483384  0.157333
			 0.471178 -0.881892 -0.016031
			 0.163932 -0.904712  0.393220
		</DataArray>
	</PointData>
	<Points>
		<DataArray type="Float32" NumberOfComponents="3" format="ascii">
			-0.120792 -0.139461 -0.098717
			-0.121127 -0.135489 -0.100941
			-0.121464 -0.131517 -0.103165
			-0.121338 -0.141498 -0.086457
			-0.119693 -0.141961 -0.085410
			-0.122395 -0.134477 -0.088885
			-0.118153 -0.132085 -0.103626
			-0.119292 -0.137703 -0.100537
			-0.122265 -0.126888 -0.094762
			-0.120120 -0.116978 -0.099428
			-0.118049 -0.124852 -0.106959
			-0.120233 -0.122086 -0.108074
			-0.115819 -0.128915 -0.070908
			-0.116685 -0.124915 -0.073184
			-0.113093 -0.130447 -0.070548
			-0.116544 -0.138952 -0.086959
			-0.117560 -0.118397 -0.077061
			-0.114123 -0.134713 -0.090545
			-0.118101 -0.128469 -0.105293
			-0.115046 -0.107762 -0.081822
			-0.111564 -0.103737 -0.084693
			-0.117869 -0.110874 -0.103337
			-0.113453 -0.121105 -0.096896
			-0.113500 -0.128967 -0.094648
			-0.117776 -0.116592 -0.110554
			-0.119109 -0.112582 -0.110978
			-0.113557 -0.118839 -0.066594
			-0.114239 -0.116506 -0.066916
			-0.115276 -0.108631 -0.071503
			-0.112652 -0.126923 -0.073230
			-0.110972 -0.120341 -0.066488
			-0.113350 -0.102343 -0.075236
			-0.111437 -0.121226 -0.075383
			-0.109367 -0.097781 -0.077329
			-0.109908 -0.097737 -0.086384
			-0.107232 -0.092813 -0.078101
			-0.115805 -0.103426 -0.104405
			-0.107890 -0.109493 -0.079882
			-0.109621 -0.116428 -0.076978
			-0.113019 -0.111485 -0.099765
			-0.115383 -0.093174 -0.116854
			-0.118219 -0.105684 -0.112167
			-0.114703 -0.084468 -0.117059
			-0.109001 -0.096778 -0.057079
			-0.109875 -0.094645 -0.057975
			-0.109456 -0.092177 -0.060133
			-0.105774 -0.087938 -0.062431
			-0.109232 -0.117135 -0.066635
			-0.104596 -0.099235 -0.057384
			-0.102705 -0.084862 -0.065542
			-0.107749 -0.112507 -0.069060
			-0.101228 -0.082112 -0.066591
			-0.106916 -0.077748 -0.090533
			-0.103117 -0.072299 -0.080812
			-0.096545 -0.065255 -0.071019
			-0.112885 -0.081804 -0.106698
			-0.107608 -0.100888 -0.082473
			-0.105068 -0.103387 -0.072488
			-0.106465 -0.108940 -0.069906
			-0.110644 -0.089272 -0.104915
			-0.108094 -0.063863 -0.120062
			-0.106841 -0.059242 -0.110776
			-0.109236 -0.062175 -0.118303
			-0.101088 -0.085085 -0.046412
			-0.101900 -0.082719 -0.046993
			-0.101036 -0.080957 -0.049455
			-0.099002 -0.078485 -0.052432
			-0.095507 -0.075816 -0.057093
			-0.102220 -0.099620 -0.058311
			-0.099530 -0.086332 -0.048327
			-0.094087 -0.073796 -0.058851
			-0.100399 -0.098712 -0.060086
			-0.091127 -0.061161 -0.063904
			-0.101715 -0.055589 -0.093904
			-0.097768 -0.052192 -0.085496
			-0.092141 -0.050059 -0.075197
			-0.087330 -0.048993 -0.067512
			-0.105141 -0.082978 -0.087265
			-0.104086 -0.093186 -0.075878
			-0.099366 -0.094220 -0.063593
			-0.099956 -0.097052 -0.061394
			-0.102892 -0.061336 -0.108216
			-0.099878 -0.033179 -0.115841
			-0.092684 -0.032249 -0.101660
			-0.103830 -0.048997 -0.111166
			-0.100820 -0.038752 -0.111555
			-0.104216 -0.045614 -0.116497
			-0.101504 -0.036109 -0.116668
			-0.090535 -0.076560 -0.039735
			-0.091408 -0.074428 -0.040632
			-0.090432 -0.071693 -0.042075
			-0.088172 -0.068978 -0.045783
			-0.085053 -0.068233 -0.049204
			-0.083766 -0.066023 -0.051834
			-0.096617 -0.084926 -0.047371
			-0.088777 -0.077748 -0.040463
			-0.083391 -0.056988 -0.056028
			-0.092899 -0.086096 -0.051021