<?xml version="1.0"?>
<VTKFile type="PolyData" version="0.1" byte_order="LittleEndian" compressor="vtkZLibDataCompressor">
	<PolyData>
		<Piece NumberOfPoints="1868" NumberOfVerts="0" NumberOfLines="0" NumberOfStrips="0" NumberOfPolys="3744">
		<PointData Normals="Normals">
		<DataArray type="Float32" Name="Normals" NumberOfComponents="3" format="ascii">
			-0.026587 -0.045572  0.998607
			 0.065709 -0.008789  0.997800
			 0.118229 -0.009346  0.992942
			 0.008670 -0.086646  0.996201
			-0.016048 -0.053090  0.998461
			-0.165949 -0.066271  0.983905
			-0.089335 -0.064760  0.993894
			-0.094945 -0.085490  0.991805
			 0.190528 -0.045949  0.980606
			 0.093866 -0.051439  0.994255
			 0.222272 -0.065408  0.972788
			 0.121190 -0.063910  0.990570
			 0.115149 -0.066507  0.991119
			-0.103453 -0.093845  0.990197
			-0.124316 -0.071933  0.989632
			-0.203361 -0.081793  0.975681
			 0.107795 -0.111962  0.987849
			 0.088617 -0.106170  0.990391
			 0.095760 -0.080064  0.992179
			 0.007254 -0.018238  0.999807
			-0.084979 -0.054113  0.994912
			-0.264617 -0.078000  0.961194
			-0.207505 -0.095712  0.973541
			-0.260802 -0.095058  0.960701
			 0.247900 -0.055058  0.967220
			 0.217255 -0.041775  0.975220
			 0.114717 -0.042207  0.992501
			-0.048935 -0.033226  0.998249
			 0.306152 -0.056411  0.950310
			 0.298078 -0.090517  0.950240
			 0.190798 -0.099246  0.976599
			 0.229028 -0.070373  0.970873
			 0.161030 -0.034398  0.986350
			 0.114530 -0.025083  0.993103
			 0.191333 -0.048427  0.980330
			-0.219690 -0.105224  0.969878
			-0.248223 -0.078107  0.965549
			-0.215051 -0.106491  0.970780
			-0.266708 -0.084687  0.960050
			-0.135145 -0.034553  0.990223
			-0.356406 -0.106278  0.928267
			-0.358101 -0.093517  0.928988
			 0.175975 -0.077292  0.981356
			 0.210067 -0.041336  0.976813
			 0.224272 -0.054561  0.972998
			-0.082734  0.037909  0.995850
			 0.164745  0.100605  0.981192
			 0.088840  0.088121  0.992140
			-0.163463 -0.050529  0.985255
			-0.455235 -0.050627  0.888931
			-0.389332 -0.032051  0.920540
			-0.272346 -0.041053  0.961323
			-0.380000 -0.129319  0.915902
			-0.484578 -0.094972  0.869577
			-0.229545 -0.086983  0.969403
			-0.339351 -0.109875  0.934221
			 0.343068 -0.038425  0.938524
			 0.208250 -0.048504  0.976872
			 0.025466 -0.030472  0.999211
			-0.145770 -0.019262  0.989131
			-0.040063 -0.019328  0.999010
			 0.446545 -0.042077  0.893771
			 0.421067 -0.068475  0.904441
			 0.461742 -0.098741  0.881501
			 0.472616 -0.098327  0.875766
			 0.294625 -0.087055  0.951639
			 0.404578 -0.039019  0.913671
			 0.282739 -0.038397  0.958428
			 0.152508 -0.028782  0.987883
			 0.168180 -0.059183  0.983978
			 0.104259 -0.026204  0.994205
			-0.449890 -0.101129  0.887340
			-0.398863  0.002815  0.917006
			-0.304531 -0.021946  0.952250
			-0.488065 -0.003410  0.872801
			-0.293587  0.034711  0.955302
			-0.608392 -0.019917  0.793386
			-0.533389 -0.155193  0.831511
			-0.541336 -0.101769  0.834625
			 0.231777 -0.002084  0.972767
			 0.190762 -0.027359  0.981255
			-0.125601  0.165346  0.978205
			-0.023768  0.231193  0.972618
			 0.052819  0.110894  0.992428
			 0.207867  0.087330  0.974251
			 0.148118  0.153308  0.977015
			 0.185968  0.123794  0.974726
			 0.138507  0.105517  0.984724
			-0.645745 -0.024567  0.763157
			-0.694341 -0.082648  0.714885
			-0.215443 -0.029139  0.976082
			-0.238394 -0.042530  0.970237
			-0.400827 -0.031729  0.915604
			-0.502368 -0.126141  0.855403
			-0.689229 -0.081779  0.719914
			-0.530058 -0.122013  0.839137
			 0.520810 -0.059591  0.851590
			 0.491543 -0.027805  0.870409
			 0.034749 -0.030343  0.998935
			 0.174775 -0.032968  0.984056
			 0.405453 -0.042840  0.913111
			-0.122091 -0.039420  0.991736
			 0.619816 -0.053128  0.782946
			 0.654790 -0.086749  0.750816
			 0.561822 -0.106160  0.820418
			 0.716654 -0.134153  0.684405
			 0.607523 -0.071010  0.791121
			 0.372688 -0.011563  0.927885
			 0.614236  0.094786  0.783409
			 0.280794  0.001146  0.959767
			 0.192319  0.031021  0.980842
			-0.538716  0.026050  0.842085
			-0.358696  0.176011  0.916710
			-0.585500  0.169821  0.792686
			-0.752373 -0.043594  0.657294
			-0.768373 -0.025175  0.639507
			-0.685088 -0.014535  0.728316
			-0.774768 -0.087356  0.626182
			-0.747928 -0.147907  0.647092
			-0.766379 -0.133321  0.628402
			 0.348148  0.072377  0.934641
			 0.322218  0.057546  0.944915
			-0.147055  0.436406  0.887651
			-0.277938  0.353299  0.893270
			 0.103302  0.266975  0.958151
			 0.005730  0.488556  0.872514
			 0.223023  0.159227  0.961721
			 0.302477  0.133838  0.943713
			 0.214840  0.100605  0.971454
			 0.258331  0.204963  0.944063
			 0.214086  0.118833  0.969560
			-0.611848 -0.044361  0.789730
			-0.496957 -0.059347  0.865744
			-0.946799 -0.041693  0.319114
			-0.872898  0.023476  0.487337
			-0.857405  0.026767  0.513946
			-0.834838 -0.086464  0.543663
			-0.170722 -0.025014  0.985002
			-0.218560 -0.039117  0.975039
			-0.162141 -0.043290  0.985818
			-0.432606 -0.039518  0.900717
			-0.631980 -0.167119  0.756752
			-0.840357 -0.127457  0.526835
			-0.837347 -0.055579  0.543840
			-0.708551 -0.163971  0.686345
			 0.802342 -0.025125  0.596336
			 0.790358 -0.057164  0.609973
			 0.676594 -0.039704  0.735285
			 0.018616 -0.031284  0.999337
			 0.317605 -0.046600  0.947077
			 0.182627 -0.033035  0.982627
			 0.619107 -0.058492  0.783125
			 0.652862 -0.025511  0.757047
			-0.154028 -0.027734  0.987677
			 0.947955 -0.053865  0.313817
			 0.918971 -0.156696  0.361855
			 0.797360 -0.151145  0.584270
			 0.791422 -0.146786  0.593384
			 0.679156 -0.011806  0.733899
			 0.545714  0.106686  0.831153
			 0.746102  0.150073  0.648699
			 0.772060  0.294552  0.563171
			 0.777906  0.299004  0.552683
			-0.609555  0.046952  0.791353
			-0.643423  0.002946  0.765505
			-0.702240  0.034178  0.711120
			-0.498881  0.336711  0.798588
			-0.672606  0.203222  0.711549
			-0.758550  0.333883  0.559575
			-0.662074  0.348828  0.663307
			-0.846873  0.001140  0.531794
			-0.932960 -0.101863  0.345267
			-0.911889 -0.053040  0.406996
			-0.865268 -0.129066  0.484411
			-0.814899 -0.100225  0.570871
			-0.794329  0.004528  0.607471
			-0.925162 -0.178162  0.335161
			-0.925625 -0.156049  0.344771
			 0.480839  0.130494  0.867044
			 0.613119  0.208798  0.761898
			 0.503690  0.226952  0.833540
			-0.269218  0.597163  0.755591
			-0.081448  0.642473  0.761967
			-0.433465  0.520378  0.735741
			 0.151342  0.343486  0.926883
			 0.059310  0.589735  0.805416
			 0.349689  0.230612  0.908040
			 0.320795  0.241912  0.915735
			 0.272612  0.484893  0.831000
			 0.338905  0.481342  0.808365
			-0.744959 -0.046245  0.665506
			-0.571776 -0.050305  0.818866
			-0.978818  0.047911  0.199047
			-0.993372  0.079975 -0.082557
			-0.982630 -0.087041  0.163898
			-0.998708 -0.030490 -0.040652
			-0.990769  0.030874 -0.131996
			-0.896695 -0.018645  0.442256
			-0.974081  0.045931  0.221488
			-0.988260  0.087140  0.125493
			-0.122395 -0.037258  0.991782
			-0.100548 -0.020513  0.994721
			-0.025027 -0.024488  0.999387
			-0.301542 -0.030672  0.952959
			-0.444325 -0.020924  0.895621
			-0.588059 -0.044202  0.807609
			-0.517764 -0.045755  0.854299
			-0.782217 -0.188783  0.593715
			 0.868531 -0.018001  0.495308
			 0.960713 -0.000389  0.277545
			 0.867303 -0.008429  0.497709
			 0.143952 -0.058147  0.987875
			 0.020622 -0.049589  0.998557
			 0.235943 -0.063821  0.969669
			 0.468944 -0.068750  0.880548
			 0.364823 -0.080966  0.927550
			 0.882588 -0.006790  0.470098
			 0.640862 -0.063258  0.765045
			 0.972342 -0.079610  0.219577
			 0.977067 -0.021926  0.211800
			 0.978783 -0.066373  0.193853
			 0.978474 -0.089701  0.185854
			 0.981782 -0.180815  0.058389
			 0.966757 -0.233002  0.105317
			 0.945914 -0.271054  0.178257
			 0.885637 -0.234841  0.400621
			 0.787944 -0.029336  0.615047
			 0.867463 -0.283712  0.408675
			 0.871926 -0.206968  0.443745
			 0.865706  0.121522  0.485577
			 0.810561  0.268137  0.520667
			 0.746129  0.333883  0.576032
			 0.752651  0.354035  0.555136
			 0.771027  0.285990  0.568970
			 0.829668  0.281007  0.482376
			 0.792353  0.253633  0.554840
			 0.763552  0.267145  0.587897
			-0.727034  0.121998  0.675676
			-0.817065  0.274868  0.506806
			-0.764937  0.002025  0.644102
			-0.854228  0.249941  0.455876
			-0.887721  0.105759  0.448069
			-0.816310  0.405134  0.411709
			-0.886328  0.352978  0.299716
			-0.679965  0.432961  0.591770
			-0.947695 -0.136578  0.288480
			-0.968853 -0.183481  0.166307
			-0.981819 -0.168966  0.086493
			-0.965129 -0.194815  0.174853
			-0.934797 -0.104366  0.339503
			-0.899419  0.028988  0.436125
			-0.930592  0.146897  0.335289
			-0.976719 -0.196895  0.085160
			-0.989089 -0.138792  0.049405
			-0.994549 -0.091792  0.049463
			 0.641691  0.332244  0.691264
			 0.455431  0.337866  0.823668
			-0.270537  0.675654  0.685785
			-0.117799  0.746949  0.654362
			-0.620815  0.654794  0.431084
			-0.350685  0.738557  0.575807
			 0.153255  0.541053  0.826907
			 0.021747  0.728467  0.684736
			 0.206857  0.653241  0.728345
			 0.493738  0.472052  0.730336
			 0.358918  0.613408  0.703497
			 0.257171  0.670492  0.695919
			 0.386125  0.758245  0.525330
			-0.618143 -0.079136  0.782072
			-0.660714 -0.077290  0.746648
			-0.838192 -0.071756  0.540634
			-0.802817 -0.075607  0.591413
			-0.976053  0.089062 -0.198466
			-0.935353  0.077071 -0.345218
			-0.991355 -0.076422 -0.106652
			-0.959839 -0.007135 -0.280461
			-0.937428 -0.023812  0.347364
			-0.999153  0.021308  0.035194
			 0.066897 -0.018491  0.997588
			 0.016790 -0.044559  0.998866
			-0.226047 -0.039273  0.973325
			 0.110902 -0.022598  0.993574
			-0.394166 -0.037283  0.918283
			-0.423669 -0.067436  0.903303
			-0.689217 -0.065665  0.721574
			-0.743938 -0.042677  0.666884
			-0.526053 -0.083989  0.846295
			-0.717143 -0.024183  0.696507
			-0.695892 -0.022083  0.717807
			 0.997901 -0.014370  0.063139
			 0.986925  0.006419  0.161052
			 0.890772  0.024136  0.453809
			 0.197947 -0.065778  0.978003
			 0.569434 -0.057282  0.820039
			 0.369506 -0.043630  0.928204
			 0.431899 -0.059106  0.899983
			 0.993794  0.038777  0.104260
			 0.812128 -0.021007  0.583101
			 0.981494 -0.102368  0.161835
			 0.993324 -0.024972  0.112619
			 0.992058 -0.104191  0.070467
			 0.964897 -0.232177 -0.122753
			 0.985330 -0.147380 -0.086046
			 0.967102 -0.214347 -0.137004
			 0.940229 -0.340529 -0.003248
			 0.913416 -0.331300  0.236456
			 0.874871 -0.028750  0.483502
			 0.894850 -0.358390  0.266083
			 0.910162 -0.324474  0.257530
			 0.929076 -0.335806  0.155085
			 0.961400 -0.109729  0.252327
			 0.883921  0.186186  0.428973
			 0.756699  0.250619  0.603819
			 0.728109  0.192846  0.657775
			 0.752823  0.159838  0.638521
			 0.940761  0.156612  0.300736
			 0.902216  0.280302  0.327776
			 0.850507  0.234092  0.470997
			-0.941621  0.266148  0.206191
			-0.923914  0.297405  0.240692
			-0.878675  0.417196  0.232115
			-0.861613  0.445766  0.242728
			-0.808749  0.582277  0.082944
			-0.735714  0.555114  0.388038
			-0.968150 -0.250323 -0.004928
			-0.986610 -0.154658 -0.051790
			-0.967632 -0.244261 -0.063438
			-0.971524 -0.236672  0.011297
			-0.962671 -0.270624 -0.005198
			-0.982181 -0.164244  0.091353
			-0.988267  0.006366  0.152605
			-0.984344 -0.129047 -0.120060
			 0.665093  0.220100  0.713587
			 0.558615  0.425287  0.712096
			 0.077235  0.793855  0.603183
			 0.076481  0.843199  0.532133
			-0.295245  0.857901  0.420520
			-0.139941  0.851183  0.505870
			-0.642187  0.710089  0.288740
			-0.467932  0.843309  0.264328
			 0.144266  0.729685  0.668391
			 0.492269  0.594679  0.635632
			 0.232003  0.772167  0.591552
			 0.534203  0.757229  0.375808
			 0.545898  0.830494  0.110791
			 0.481507  0.865312  0.139231
			 0.384350  0.904520  0.184714
			-0.972454 -0.052094  0.227200
			-0.856805 -0.018651  0.515303
			-0.985627  0.001399  0.168931
			-0.953303  0.035848 -0.299880
			-0.896616  0.074627 -0.436474
			-0.893696  0.100913 -0.437177
			-0.903774 -0.000425 -0.428009
			-0.943920 -0.114423 -0.309714
			-0.932528 -0.031682 -0.359705
			 0.161692 -0.041287  0.985977
			-0.034123 -0.051122  0.998109
			 0.081290 -0.047191  0.995573
			-0.176704 -0.044307  0.983266
			-0.312515 -0.029473  0.949456
			 0.281736 -0.049247  0.958227
			-0.478790 -0.019863  0.877705
			-0.408653 -0.005661  0.912672
			-0.835091 -0.006204  0.550077
			-0.916166 -0.008191  0.400716
			-0.682586 -0.026231  0.730334
			-0.857709 -0.018269  0.513810
			-0.856209 -0.011562  0.516500
			 0.999663 -0.006495 -0.025125
			 0.998060 -0.057546 -0.023777
			 0.995085 -0.010543 -0.098461
			 0.985921 -0.043963 -0.161327
			 0.999212  0.004329  0.039463
			 0.999653  0.015840 -0.021025
			 0.970075  0.020756  0.241917
			 0.642858 -0.055095  0.764002
			 0.489739 -0.048277  0.870532
			 0.737093 -0.034284  0.674921
			 0.799455 -0.021494  0.600341
			 0.418605 -0.049582  0.906814
			 0.995483  0.069783 -0.064367
			 0.995919  0.041845 -0.079964
			 0.983130  0.013983 -0.182371
			 0.971396  0.047774  0.232609
			 0.942272 -0.207710 -0.262642
			 0.932591 -0.227669 -0.280074
			 0.922169 -0.302270 -0.241324
			 0.976506 -0.079247 -0.200388
			 0.927230 -0.182383 -0.327081
			 0.908778 -0.389598 -0.149454
			 0.898381 -0.438553  0.024142
			 0.940849 -0.333937  0.057356
			 0.870305 -0.486764 -0.075039
			 0.987409 -0.134024  0.084033
			 0.971413 -0.231627 -0.052011
			 0.938184 -0.346127 -0.002465
			 0.988040  0.025803  0.152025
			 0.770318  0.239370  0.591026
			 0.889584  0.322609  0.323362
			 0.923369  0.275222  0.267661
			 0.823959  0.121176  0.553542
			 0.834446  0.361027  0.416366
			 0.999947  0.003114 -0.009816
			 0.970002  0.179115  0.164358
			 0.958802  0.259024  0.116645
			 0.929326  0.319173  0.185693
			 0.917329  0.256315  0.304647
			 0.922770  0.362351  0.131136
			-0.983684  0.118108  0.135705
			-0.924054  0.207735  0.320890
			-0.871016  0.349163  0.345566
			-0.795965  0.529560  0.293267
			-0.797456  0.390230  0.460200
			-0.784308  0.590294  0.190824
			-0.945582 -0.324567 -0.023033
			-0.976500 -0.207478 -0.058311
			-0.948495 -0.314057  0.041537
			-0.957325 -0.287867  0.025711
			-0.981537 -0.191269 -0.000638
			-0.982798 -0.163807  0.085296
			-0.955317 -0.213176 -0.204755
			 0.753705  0.401559  0.520269
			 0.635536  0.419669  0.648052
			 0.600684  0.670907  0.434814
			 0.231539  0.837106  0.495625
			 0.197085  0.968642  0.151298
			-0.382913  0.816724  0.431671
			-0.188199  0.888845  0.417776
			-0.511939  0.696700  0.502521
			-0.747583  0.555722  0.363720
			 0.572865  0.814475  0.091954
			 0.490843  0.866605 -0.089825
			 0.571268  0.799661 -0.184921
			 0.341792  0.918671 -0.198047
			 0.399316  0.912062 -0.093224
			 0.442047  0.875876 -0.193486
			-0.967251  0.022684 -0.252808
			-0.995506  0.023889  0.091637
			-0.921101  0.007373  0.389253
			-0.973047  0.056835 -0.223496
			-0.855896  0.042319 -0.515413
			-0.886676  0.041108 -0.460560
			-0.846192  0.066892 -0.528663
			-0.883819 -0.023565 -0.467236
			-0.907673 -0.133748 -0.397796
			-0.850230  0.022227 -0.525941
			-0.927345 -0.143020 -0.345797
			-0.897214 -0.029459 -0.440612
			-0.949559 -0.296255 -0.102811
			-0.959577 -0.222348 -0.172547
			-0.955078 -0.140097 -0.261148
			-0.928600 -0.029037 -0.369944
			 0.179928 -0.044152  0.982688
			 0.322091 -0.048718  0.945454
			 0.010430 -0.062005  0.998021
			-0.180279 -0.056366  0.981999
			-0.330278 -0.048554  0.942634
			-0.483754 -0.003628  0.875197
			-0.961555  0.015464  0.274176
			-0.882620 -0.005331  0.470057
			-0.999672  0.022369 -0.012495
			-0.972143 -0.024601  0.233095
			-0.671270  0.000626  0.741212
			-0.944461  0.021264  0.327935
			-0.851962  0.022501  0.523119
			 0.974095 -0.020609 -0.225196
			 0.901086 -0.078777 -0.426424
			 0.946737 -0.075173 -0.313109
			 0.528913 -0.050406  0.847178
			 0.817511 -0.018120  0.575627
			 0.606026 -0.045850  0.794122
			 0.922159  0.009167  0.386702
			 0.438189 -0.045150  0.897748
			 0.995834  0.059565 -0.069041
			 0.960434  0.066943 -0.270341
			 0.995413  0.095611  0.003475
			 0.943593 -0.004775 -0.331074
			 0.868056 -0.033945 -0.495304
			 0.875268 -0.053274 -0.480696
			 0.872040 -0.007594 -0.489375
			 0.995102  0.071782  0.067968
			 0.790637 -0.313942 -0.525674
			 0.830780 -0.484024 -0.274819
			 0.934550 -0.119484 -0.335170
			 0.879980 -0.107721 -0.462635
			 0.743509 -0.205151 -0.636480
			 0.855252 -0.137359 -0.499677
			 0.849976 -0.510720 -0.129253
			 0.871233 -0.426040 -0.243810
			 0.927927 -0.208686 -0.308871
			 0.806579  0.579510  0.116612
			 0.887264  0.449641  0.102888
			 0.824685  0.555570 -0.106008
			 0.988507  0.150254 -0.016645
			 0.977694 -0.000425 -0.210034
			 0.952089  0.305697  0.008733
			 0.934346  0.352644  0.051378
			 0.821928  0.562056 -0.092344
			 0.886968  0.452312 -0.093284
			-0.994040 -0.076646  0.077526
			-0.981943  0.118897  0.147142
			-0.852759  0.210146  0.478163
			-0.966185  0.074620  0.246817
			-0.966724  0.018513  0.255149
			-0.956115  0.276723  0.096271
			-0.977451  0.144841  0.153658
			-0.820340  0.354942  0.448396
			-0.943828 -0.318515  0.087957
			-0.935560 -0.324616  0.139113
			-0.951027 -0.284402  0.121091
			-0.960485 -0.229803  0.157032
			-0.939918 -0.316571 -0.127820
			-0.927041 -0.374910 -0.006049
			 0.688144  0.655945  0.310152
			 0.629909  0.773620 -0.068755
			 0.063742  0.981370 -0.181245
			 0.264066  0.877886 -0.399482
			-0.316991  0.868366  0.381388
			-0.500946  0.860624 -0.091543
			-0.702594  0.709528  0.054145
			-0.841608  0.539815  0.017171
			-0.654995  0.737726 -0.163529
			 0.505005  0.826340 -0.249264
			 0.613877  0.697592 -0.369487
			 0.562705  0.726923 -0.393631
			 0.326276  0.904498 -0.274640
			 0.274315  0.855383 -0.439399
			 0.393902  0.884127 -0.251316
			 0.443646  0.830183 -0.337600
			 0.381578  0.854285 -0.352981
			-0.932438  0.037865 -0.359342
			-0.852009  0.063889 -0.519613
			-0.996118 -0.020179 -0.085684
			-0.841167  0.023227 -0.540276
			-0.832539  0.073682 -0.549044
			-0.844476  0.041697 -0.533968
			-0.757089 -0.114057 -0.643278
			-0.903318  0.023835 -0.428308
			-0.853074 -0.118401 -0.508180
			-0.836792 -0.031876 -0.546592
			-0.858713  0.048754 -0.510132
			-0.969677 -0.238634 -0.052730
			-0.904887 -0.419777  0.070474
			-0.953900 -0.276276 -0.117249
			-0.900873 -0.333630 -0.277704
			-0.887161 -0.461274  0.013078
			-0.939973 -0.270823 -0.207621
			-0.942347 -0.124148 -0.310757
			 0.343211 -0.026766  0.938877
			 0.246773 -0.035146  0.968436
			 0.370035 -0.023563  0.928719
			-0.172498 -0.079821  0.981770
			-0.035389 -0.058744  0.997646
			 0.189639 -0.043521  0.980889
			-0.260588 -0.087426  0.961484
			-0.363003 -0.064539  0.929550
			-0.503235 -0.046111  0.862918
			-0.581234 -0.027723  0.813264
			-0.997925  0.027103  0.058412
			-0.946554  0.076187 -0.313418
			-0.828022  0.026717  0.560059
			-0.684462 -0.010783  0.728969
			-0.945782  0.009796  0.324654
			-0.988201  0.067761 -0.137361
			-0.991776  0.107757  0.069054
			-0.992988  0.105156 -0.054003
			-0.918721  0.075094  0.387702
			-0.991670  0.109236  0.068250
			 0.803099 -0.051576 -0.593609
			 0.825455 -0.109990 -0.553648
			 0.788282 -0.079164 -0.610200
			 0.701813 -0.028814  0.711778
			 0.938670  0.036710  0.342856
			 0.977454  0.034515  0.208307
			 0.490970 -0.028473  0.870711
			 0.974073  0.085597 -0.209417
			 0.996243  0.085510 -0.013702
			 0.927788  0.079800 -0.364474
			 0.867102  0.041462 -0.496401
			 0.824113 -0.037269 -0.565198
			 0.813106 -0.041156 -0.580659
			 0.811212 -0.017892 -0.584479
			 0.697607 -0.515873 -0.497211
			 0.702965 -0.240176 -0.669445
			 0.647056 -0.374271 -0.664259
			 0.580078 -0.532085 -0.616762
			 0.786601 -0.483951 -0.383471
			 0.765416 -0.127674 -0.630743
			 0.746932 -0.138084 -0.650404
			 0.739750 -0.156521 -0.654424
			 0.690010 -0.162105 -0.705414
			 0.834828 -0.389928 -0.388610
			 0.857614 -0.255624 -0.446267
			 0.912057 -0.019894 -0.409581
			 0.684665  0.682990 -0.254477
			 0.752046  0.628219 -0.199419
			 0.723684  0.661822 -0.195635
			 0.665084  0.699321 -0.261942
			 0.657360  0.702719 -0.272145
			 0.739800  0.611121 -0.281473
			 0.975542  0.142652 -0.167238
			 0.947324  0.280877 -0.153899
			 0.770826  0.616385 -0.160922
			 0.934611  0.264576 -0.237703
			 0.840936  0.511980 -0.175220
			-0.971282 -0.216056  0.099651
			-0.978642 -0.049299 -0.199571
			-0.999634  0.012393  0.024065
			-0.901727  0.251020  0.351962
			-0.993643  0.109073 -0.027867
			-0.950054  0.233345 -0.207238
			-0.861793  0.384669 -0.330670
			-0.834399  0.421986 -0.354551
			-0.822714  0.460371 -0.333467
			-0.942334 -0.306125  0.135258
			-0.936256 -0.349857  0.032004
			-0.903740 -0.404768  0.139345
			-0.946327 -0.296076  0.129632
			-0.224567  0.971665 -0.073739
			 0.030107  0.878419 -0.476943
			 0.122517  0.809989 -0.573504
			-0.010972  0.783771 -0.620953
			-0.206915  0.823975 -0.527496
			-0.460306  0.754432 -0.467921
			-0.647302  0.589424 -0.483301
			-0.569172  0.706468 -0.420650
			-0.449043  0.709769 -0.542760
			 0.489915  0.765057 -0.417938
			 0.645981  0.680425 -0.346020
			 0.536839  0.782780 -0.314738
			 0.536132  0.753633 -0.380263
			 0.359869  0.808191 -0.466178
			 0.221730  0.803961 -0.551799
			 0.215606  0.772813 -0.596887
			-0.853128  0.099887 -0.512049
			-0.846099  0.060966 -0.529528
			-0.832001  0.066769 -0.550741
			-0.828181  0.066574 -0.556493
			-0.814950  0.108437 -0.569296
			-0.612194 -0.125472 -0.780689
			-0.498088 -0.099286 -0.861424
			-0.657407 -0.012933 -0.753425
			-0.583757 -0.067476 -0.809120
			-0.932999 -0.270420 -0.237456
			-0.701043 -0.161318 -0.694633
			-0.831175 -0.275088 -0.483191
			-0.747236  0.028843 -0.663932
			-0.640676  0.039598 -0.766789
			-0.842420  0.066189 -0.534740
			-0.903241 -0.331417 -0.272613
			-0.830014 -0.320579 -0.456405
			-0.840397 -0.429551 -0.330482
			-0.824113 -0.358207 -0.438777
			-0.826548 -0.383117 -0.412358
			-0.873289 -0.468704 -0.132980
			 0.357880 -0.025218  0.933427
			 0.318622 -0.037888  0.947124
			-0.247820 -0.104039  0.963204
			-0.194656 -0.103785  0.975365
			-0.130548 -0.091335  0.987226
			 0.243570 -0.010793  0.969823
			 0.081910 -0.045729  0.995590
			-0.058128 -0.078614  0.995209
			 0.355758 -0.037393  0.933830
			-0.316088 -0.047907  0.947520
			-0.464108 -0.037935  0.884966
			-0.517965 -0.067137  0.852763
			-0.626044  0.007657  0.779750
			-0.735253  0.014615  0.677635
			-0.858646  0.118328 -0.498723
			-0.843798  0.133580 -0.519771
			-0.971897  0.079901  0.221434
			-0.903492  0.071890  0.422533
			-0.917826  0.133605 -0.373825
			-0.982007  0.111939 -0.152095
			-0.908549  0.176958 -0.378451
			-0.962244  0.203696 -0.180539
			 0.801458 -0.008894 -0.597985
			 0.697827 -0.016629 -0.716073
			 0.790040 -0.050595 -0.610965
			 0.783123 -0.052818 -0.619620
			 0.752521 -0.092829 -0.651992
			 0.671994 -0.045153  0.739179
			 0.779858 -0.020577  0.625618
			 0.962635  0.068001  0.262126
			 0.829941 -0.010523  0.557752
			 0.591134 -0.009403  0.806519
			 0.459628 -0.014155  0.887999
			 0.893106  0.091407 -0.440462
			 0.994579  0.102935 -0.014735
			 0.961756  0.127421 -0.242464
			 0.992310  0.091978  0.082832
			 0.790884  0.072694 -0.607634
			 0.788969  0.031755 -0.613612
			 0.697664 -0.502182 -0.510958
			 0.705511 -0.370665 -0.604038
			 0.732664 -0.198955 -0.650861
			 0.765932 -0.291652 -0.572963
			 0.776543 -0.353235 -0.521733
			 0.711504 -0.487671 -0.505904
			 0.611464 -0.627749 -0.481709
			 0.608778 -0.564074 -0.557862
			 0.742004 -0.133333 -0.657003
			 0.716652 -0.123279 -0.686449
			 0.763784 -0.108759 -0.636244
			 0.686763 -0.102358 -0.719638
			 0.704441 -0.146531 -0.694472
			 0.774369 -0.303898 -0.554976
			 0.822617 -0.100741 -0.559600
			 0.944400  0.148427 -0.293391
			 0.938140  0.061249 -0.340796
			 0.886735 -0.003198 -0.462267
			 0.691604  0.696138 -0.192551
			 0.534829  0.819645 -0.205280
			 0.906373  0.066413 -0.417225
			 0.921801  0.053921 -0.383894
			 0.936496  0.227089 -0.267217
			 0.918601  0.343917 -0.194661
			 0.875702  0.450293 -0.174305
			 0.709729  0.696991 -0.102412
			-0.982011 -0.187793 -0.019722
			-0.958683 -0.094860 -0.268194
			-0.922097  0.041810 -0.384693
			-0.891933  0.055958 -0.448691
			-0.942527  0.127843 -0.308707
			-0.955880  0.174718 -0.236149
			-0.820214  0.369981 -0.436306
			-0.699773  0.489744 -0.520066
			-0.966543 -0.239146 -0.092756
			-0.904862 -0.316624 -0.284558
			-0.106234  0.755993 -0.645902
			 0.121162  0.773140 -0.622554
			-0.064343  0.742008 -0.667296
			-0.131778  0.729825 -0.670813
			-0.233811  0.729453 -0.642830
			-0.620476  0.563235 -0.545689
			-0.518553  0.633667 -0.574081
			-0.326814  0.724617 -0.606732
			-0.441344  0.666149 -0.601216
			 0.463744  0.767035 -0.443393
			 0.461464  0.759289 -0.458836
			 0.389469  0.859772 -0.330312
			 0.501983  0.843757 -0.189965
			 0.195489  0.883541 -0.425605
			 0.157923  0.839741 -0.519515
			 0.102616  0.817911 -0.566120
			-0.815176  0.146151 -0.560471
			-0.835611  0.080350 -0.543413
			-0.837034  0.079900 -0.541286
			-0.833297  0.040436 -0.551345
			-0.717363  0.070183 -0.693156
			-0.779952  0.132451 -0.611663
			-0.337773 -0.166070 -0.926461
			-0.556334 -0.187759 -0.809469
			-0.340922 -0.046580 -0.938937
			-0.541258 -0.036320 -0.840072
			-0.191758 -0.075171 -0.978559
			-0.551778  0.010856 -0.833920
			-0.550744 -0.248212 -0.796914
			-0.661027 -0.398573 -0.635754
			-0.718184 -0.015292 -0.695685
			-0.557800  0.005127 -0.829959
			-0.563853  0.013839 -0.825759
			-0.872102 -0.413319 -0.261926
			-0.823217 -0.423026 -0.378632
			-0.850877 -0.401757 -0.338525
			-0.896096 -0.327195 -0.299924
			-0.839591 -0.428834 -0.333449
			-0.703666 -0.460919 -0.540747
			 0.452252 -0.018898  0.891690
			-0.259499 -0.082876  0.962181
			-0.075791 -0.060215  0.995304
			-0.226293 -0.046233  0.972961
			-0.055829 -0.070707  0.995934
			 0.485589 -0.020796  0.873940
			 0.450422  0.039372  0.891947
			 0.481213  0.010160  0.876545
			 0.288956  0.017560  0.957181
			 0.100653 -0.029689  0.994479
			-0.213074 -0.020798  0.976815
			-0.344826  0.063996  0.936482
			-0.475696  0.027836  0.879169
			-0.603953  0.109601  0.789449
			-0.802198  0.186733  0.567106
			-0.793550  0.013471  0.608357
			-0.805289  0.095780  0.585094
			-0.790151  0.142597 -0.596094
			-0.981069  0.172062  0.088873
			-0.876185  0.117038  0.467550
			-0.971064  0.176755  0.160599
			-0.826083  0.178309 -0.534596
			-0.890765  0.247924 -0.380882
			-0.834482  0.206607 -0.510836
			-0.866173  0.260822 -0.426281
			-0.809168  0.183213 -0.558283
			-0.830569  0.175516 -0.528535
			-0.914863  0.317134 -0.249904
			-0.970370  0.227698 -0.080841
			 0.803789 -0.007518 -0.594867
			 0.737162 -0.008155 -0.675667
			 0.630553 -0.006513 -0.776119
			 0.550918  0.013611 -0.834449
			 0.752705 -0.028501 -0.657741
			 0.545184 -0.143692 -0.825910
			 0.643077 -0.070555 -0.762545
			 0.681372 -0.002505 -0.731933
			 0.512039 -0.036309 -0.858195
			 0.760805 -0.071383 -0.645043
			 0.709924 -0.025529  0.703816
			 0.921074  0.042371  0.387076
			 0.758440  0.010259  0.651663
			 0.951884  0.062078  0.300106
			 0.560191 -0.013185  0.828258
			 0.655963 -0.013129  0.754679
			 0.812741  0.147446 -0.563659
			 0.913393  0.168285 -0.370666
			 0.989080  0.139618 -0.047203
			 0.744978  0.110144 -0.657933
			 0.773630  0.063091 -0.630489
			 0.793948  0.052887 -0.605681
			 0.790020  0.036466 -0.611996
			 0.801251  0.060457 -0.595266
			 0.731269 -0.310673 -0.607230
			 0.776509 -0.270940 -0.568881
			 0.762477 -0.403020 -0.506165
			 0.705151 -0.558227 -0.437201
			 0.663171 -0.634996 -0.396212
			 0.718479 -0.458407 -0.523116
			 0.714784 -0.113794 -0.690026
			 0.701903 -0.085218 -0.707157
			 0.771373 -0.207050 -0.601760
			 0.782110 -0.215397 -0.584729
			 0.826207 -0.080699 -0.557556
			 0.513991  0.842507 -0.161233
			 0.677121  0.720543 -0.149418
			 0.739060  0.641383 -0.205957
			 0.569994  0.814812 -0.105778
			 0.933501  0.153103 -0.324245
			 0.878607 -0.082661 -0.470338
			 0.902154  0.304944 -0.305166
			-0.929455 -0.151732 -0.336289
			-0.899865 -0.035756 -0.434701
			-0.862558  0.181627 -0.472234
			-0.894183 -0.004242 -0.447682
			-0.898677 -0.002131 -0.438607
			-0.796238  0.303546 -0.523321
			-0.857572  0.266397 -0.440002
			-0.837940  0.325968 -0.437723
			-0.749280  0.461079 -0.475379
			-0.664648  0.528934 -0.527705
			-0.913412 -0.264676 -0.309234
			-0.885912 -0.286685 -0.364652
			-0.107595  0.827259 -0.551421
			-0.112502  0.753149 -0.648159
			-0.177188  0.730467 -0.659563
			-0.557615  0.608267 -0.564869
			-0.289106  0.686345 -0.667345
			-0.396636  0.655728 -0.642418
			 0.241172  0.956025 -0.166892
			 0.468773  0.870011 -0.152753
			 0.086944  0.929858 -0.357497
			 0.118593  0.965873 -0.230270
			-0.009706  0.885687 -0.464182
			-0.656850 -0.008087 -0.753978
			-0.746552  0.143412 -0.649687
			-0.627116  0.164649 -0.761325
			-0.509440  0.136056 -0.849682
			-0.474005  0.079672 -0.876910
			-0.484426  0.023137 -0.874526
			-0.121565 -0.212456 -0.969580