<?xml version="1.0"?>
<VTKFile type="PolyData" version="0.1" byte_order="LittleEndian" compressor="vtkZLibDataCompressor">
	<PolyData>
		<Piece NumberOfPoints="648" NumberOfVerts="0" NumberOfLines="0" NumberOfStrips="0" NumberOfPolys="1294">
		<PointData Normals="Normals">
		<DataArray type="Float32" Name="Normals" NumberOfComponents="3" format="ascii">
			 0.936087 -0.349462  0.040217
			 0.919754 -0.102747  0.378808
			 0.907396 -0.405549  0.110284
			 0.940564  0.023355  0.338812
			 0.944044 -0.329721  0.008070
			 0.813620 -0.545497 -0.201135
			 0.801939 -0.576865 -0.155308
			 0.729548 -0.653165 -0.202819
			 0.814415  0.119838  0.567773
			 0.890839 -0.246398  0.381698
			 0.759858 -0.634723  0.140508
			 0.637887 -0.752917 -0.161916
			 0.988310 -0.079349  0.130180
			 0.849801  0.207827  0.484402
			 0.852747  0.296942  0.429707
			 0.925411 -0.343270 -0.160562
			 0.594270 -0.780704 -0.193245
			 0.779243 -0.605280 -0.162533
			 0.592365 -0.780477 -0.199896
			 0.781336  0.295746  0.549590
			 0.724495  0.254896  0.640418
			 0.666191 -0.016993  0.745588
			 0.753109  0.179601  0.632907
			 0.779298 -0.266490  0.567167
			 0.630446 -0.677594  0.378688
			 0.364653 -0.927689  0.080134
			 0.283162 -0.958193 -0.041062
			 0.998176 -0.054886  0.025144
			 0.888578  0.307575  0.340332
			 0.951202  0.213835  0.222461
			 0.825082  0.277400  0.492229
			 0.894972  0.215837  0.390435
			 0.973171 -0.151810 -0.172896
			 0.908553 -0.366609 -0.200322
			 0.447349 -0.859811 -0.246180
			 0.495781 -0.850359 -0.176325
			 0.413208 -0.910366  0.022212
			 0.657265 -0.725076 -0.205589
			 0.863688 -0.448873 -0.229249
			 0.509251 -0.821036 -0.257998
			 0.624202  0.405664  0.667689
			 0.651492  0.489581  0.579542
			 0.733244  0.422370  0.532876
			 0.662606  0.245936  0.707438
			 0.684289  0.144627  0.714725
			 0.509657 -0.061103  0.858205
			 0.544013 -0.509185  0.666919
			 0.433208 -0.509446  0.743502
			 0.318990 -0.399647  0.859377
			 0.444151 -0.739502  0.505833
			 0.187435 -0.964030  0.188454
			 0.063679 -0.994548  0.082574
			 0.296214 -0.946011  0.131604
			 0.997382  0.069891  0.018531
			 0.937705  0.195044  0.287519
			 0.871659  0.264720  0.412472
			 0.771321  0.370940  0.517172
			 0.910338 -0.226678 -0.346267
			 0.960884 -0.104949 -0.256295
			 0.325220 -0.933589 -0.150475
			 0.199313 -0.951468 -0.234484
			 0.399141 -0.886914 -0.232530
			 0.233938 -0.971802  0.029558
			 0.702160 -0.654588 -0.280153
			 0.510109 -0.848193 -0.142682
			 0.849266 -0.384824 -0.361465
			 0.483329 -0.859407 -0.166771
			 0.485884  0.208593  0.848767
			 0.493347  0.402402  0.771156
			 0.526748  0.576367  0.624769
			 0.581934  0.589271  0.560457
			 0.604917  0.591794  0.532781
			 0.602807  0.563166  0.565215
			 0.535248  0.132125  0.834298
			 0.426542  0.045185  0.903339
			 0.398074 -0.174284  0.900645
			 0.259603 -0.283118  0.923283
			 0.143677 -0.910218  0.388408
			 0.071351 -0.865816  0.495249
			 0.114594 -0.613712  0.781170
			 0.150895 -0.972980  0.174759
			 0.398031 -0.912116  0.098064
			 0.385244 -0.911130  0.146385
			 0.957094  0.229592  0.176802
			 0.978863  0.052107 -0.197767
			 0.885524  0.293836  0.359873
			 0.789148  0.421188  0.447042
			 0.593905  0.566684  0.571093
			 0.830736 -0.278337 -0.482085
			 0.832045 -0.127793 -0.539786
			 0.757661  0.003020 -0.652641
			 0.129319 -0.985753 -0.107551
			 0.018957 -0.982788 -0.183764
			-0.207537 -0.968531 -0.137390
			 0.369623 -0.919098 -0.136520
			-0.189494 -0.973331 -0.129302
			 0.186073 -0.982514 -0.006575
			 0.646089 -0.698853 -0.306877
			 0.749712 -0.321398 -0.578477
			 0.640156 -0.609644 -0.467477
			 0.515479 -0.817859 -0.255711
			 0.654523 -0.648532 -0.388595
			 0.409164 -0.904797 -0.118014
			 0.492743 -0.853528 -0.169394
			 0.302456  0.072228  0.950423
			 0.338301  0.279555  0.898555
			 0.431987  0.437379  0.788725
			 0.392990  0.530309  0.751220
			 0.485723  0.731026  0.479244
			 0.377278  0.654838  0.654865
			 0.375615  0.773396  0.510658
			 0.525636  0.670418  0.523686
			 0.611087  0.651134  0.450107
			 0.462079 -0.057967  0.884942
			 0.421431 -0.392175  0.817677
			 0.041182 -0.962845  0.266896
			-0.159804 -0.888410  0.430337
			 0.027962 -0.802098  0.596538
			 0.277568 -0.884760  0.374375
			-0.078309 -0.992322 -0.095729
			 0.051694 -0.983996  0.170531
			 0.012080 -0.886773  0.462048
			 0.850532  0.398347  0.343388
			 0.927499  0.166443 -0.334728
			 0.909021  0.383005  0.164279
			 0.654443  0.583964  0.480303
			 0.493494  0.657169  0.569730
			 0.789039 -0.171529 -0.589911
			 0.891191 -0.058217 -0.449878
			 0.771583 -0.143447 -0.619744
			 0.843407 -0.132062 -0.520791
			 0.238666 -0.968208 -0.074909
			 0.025564 -0.998087  0.056292
			-0.118255 -0.991572  0.052932
			-0.490707 -0.865678 -0.099034
			-0.353863 -0.933542  0.057281
			-0.490636 -0.865332 -0.102354
			 0.664696 -0.318822 -0.675671
			 0.670459 -0.165785 -0.723188
			 0.697664 -0.278906 -0.659907
			 0.649051 -0.594100 -0.475162
			 0.737379 -0.277607 -0.615797
			 0.665210 -0.612711 -0.426710
			 0.788727 -0.178402 -0.588288
			 0.252346 -0.966981 -0.035621
			 0.265577 -0.963947  0.016555
			 0.302364 -0.951264 -0.060607
			 0.400336 -0.838007 -0.370776
			 0.258489  0.225624  0.939296
			 0.090864  0.035582  0.995227
			 0.411876 -0.007346  0.911210
			 0.130457 -0.373242  0.918516
			-0.246267 -0.400898  0.882402
			 0.297080  0.293408  0.908656
			 0.273385  0.284965  0.918725
			 0.286153  0.407988  0.866984
			 0.270016  0.583979  0.765545
			 0.485705  0.784226  0.386110
			 0.265483  0.895591  0.356981
			 0.229342  0.755209  0.614053
			 0.322330  0.861135  0.393128
			 0.447656  0.704767  0.550369
			 0.395960 -0.417058  0.818094
			 0.312107 -0.466893  0.827406
			 0.151870 -0.842551  0.516762
			-0.054508 -0.861773  0.504358
			 0.069413 -0.858931  0.507365
			 0.032631 -0.869051  0.493646
			-0.489977 -0.866641  0.094106
			-0.253140 -0.853305  0.455841
			-0.455301 -0.769738  0.447442
			-0.516325 -0.808928  0.281149
			 0.721287  0.556840  0.411916
			 0.948136  0.280535 -0.149461
			 0.890686  0.125905 -0.436836
			 0.799629  0.519457  0.301260
			 0.890307  0.431086 -0.146690
			 0.815747  0.554313  0.165207
			 0.620954 -0.179793 -0.762949
			 0.682193 -0.140749 -0.717498
			 0.826913 -0.024598 -0.561792
			 0.619051 -0.200607 -0.759297
			-0.217379 -0.970231  0.106766
			-0.182190 -0.961764  0.204490
			 0.095713 -0.989003  0.112745
			-0.585502 -0.806756 -0.079573
			-0.500419 -0.861608  0.084931
			-0.585084 -0.810379  0.031031
			-0.297903 -0.943641  0.144206
			-0.533576 -0.813488  0.231373
			-0.384161 -0.897046  0.218468
			 0.538462 -0.161962 -0.826938
			 0.672144 -0.142258 -0.726626
			 0.694847 -0.067570 -0.715976
			 0.719908 -0.050226 -0.692249
			 0.722706 -0.284023 -0.630100
			 0.491138 -0.571186 -0.657671
			 0.683749 -0.080342 -0.725281
			 0.647871 -0.170496 -0.742424
			 0.224391 -0.957579 -0.180808
			 0.282607 -0.870080 -0.403848
			 0.195279 -0.687918 -0.699024
			 0.048273  0.072403  0.996207
			-0.204630 -0.235804  0.950012
			 0.009716 -0.788556  0.614887
			-0.301965 -0.702456  0.644494
			-0.412125 -0.588508  0.695565
			-0.423039 -0.769549  0.478365
			-0.472615 -0.737285  0.482749
			 0.184444  0.274525  0.943725
			 0.235716  0.376953  0.895737
			 0.052916  0.589813  0.805804
			-0.093747  0.483306  0.870417
			 0.182875  0.933567  0.308236
			 0.136879  0.820338  0.555256
			 0.188331  0.931027  0.312604
			 0.329004  0.835452  0.440200
			 0.564578  0.693761  0.447154
			-0.167548 -0.892722  0.418299
			-0.629288 -0.765082  0.136549
			-0.483405 -0.834155  0.265528
			-0.578454 -0.769935  0.269426
			 0.657848  0.693752  0.293162
			 0.834217  0.334746 -0.438209
			 0.827864  0.154774 -0.539154
			 0.742172  0.670078  0.013241
			 0.770340  0.558086 -0.308410
			 0.772239 -0.065001 -0.631998
			 0.585674 -0.184352 -0.789304
			 0.571515 -0.172208 -0.802319
			 0.847645  0.142781 -0.510991
			-0.044927 -0.985498  0.163629
			-0.268818 -0.928458  0.256325
			 0.145505 -0.957295 -0.249828
			-0.593232 -0.786833  0.170206
			-0.607364 -0.782521  0.137004
			-0.600436 -0.765438  0.231477
			-0.519895 -0.786810  0.332624
			-0.589297 -0.751663  0.296195
			-0.431613 -0.815010  0.386613
			 0.661593 -0.066421 -0.746916
			 0.672897  0.012136 -0.739637
			 0.446807 -0.484503 -0.752077
			 0.657502  0.032364 -0.752757
			 0.554934 -0.270670 -0.786629
			 0.212614 -0.756773 -0.618135
			 0.202684 -0.503038 -0.840162
			 0.124500 -0.621184 -0.773712
			-0.007018 -0.695033 -0.718943
			-0.057864  0.044782  0.997320
			-0.279125 -0.202910  0.938572
			-0.286537 -0.078843  0.954819
			-0.419190 -0.446551  0.790488
			-0.510502 -0.714915  0.477791
			-0.522473 -0.783919  0.335400
			-0.018892  0.387672  0.921604
			-0.173005  0.199236  0.964559
			-0.212609  0.580108  0.786303
			-0.167889  0.739236  0.652183
			-0.440090  0.564322  0.698471
			-0.460178  0.299120  0.835921
			-0.608488  0.381639  0.695769
			 0.229011  0.870119  0.436402
			 0.331304  0.871179  0.362334
			 0.252940  0.855571  0.451686
			 0.356470  0.833022  0.423087
			-0.185829  0.852906  0.487873
			 0.131235  0.900769  0.413996
			 0.455524  0.819858  0.346888
			-0.561957 -0.818333  0.120561
			 0.601675  0.791168  0.109730
			 0.503156  0.852088  0.144157
			 0.782780  0.444344 -0.435677
			 0.642838  0.743017 -0.186238
			 0.644941  0.643048 -0.412965
			 0.736047  0.052903 -0.674860
			 0.497916 -0.191634 -0.845787
			 0.508448 -0.160362 -0.846029
			 0.576914 -0.126180 -0.807000
			-0.217380 -0.900947  0.375555
			 0.006697 -0.999836 -0.016846
			 0.091648 -0.945105 -0.313652
			 0.223863 -0.622368 -0.750029
			-0.606348 -0.760040  0.233838
			-0.664948 -0.708183  0.237321
			-0.730319 -0.676362  0.095750
			-0.682079 -0.727763  0.071622
			-0.645701 -0.639429  0.417373
			-0.441430 -0.742619  0.503644
			-0.365012 -0.805655  0.466569
			-0.325619 -0.824786  0.462277
			 0.589329 -0.054635 -0.806044
			 0.620221  0.003347 -0.784420
			 0.646168  0.090051 -0.757864
			 0.595273 -0.036140 -0.802711
			 0.411283 -0.257186 -0.874472
			 0.432822 -0.276380 -0.858067
			 0.268040 -0.566436 -0.779298
			-0.115242 -0.759161 -0.640620
			 0.176052 -0.531497 -0.828563
			 0.101108 -0.734328 -0.671222
			-0.477385 -0.229455  0.848206
			-0.482164  0.057360  0.874201
			-0.616045 -0.436900  0.655444
			-0.624739 -0.746246  0.229823
			-0.567571  0.638404  0.519907
			-0.704923  0.478580  0.523493
			-0.704657  0.103332  0.701983
			-0.773155  0.181175  0.607789
			-0.786976  0.271695  0.553940
			 0.434516  0.882414  0.180393
			 0.228111  0.866934  0.443161
			 0.277757  0.904016  0.324970
			 0.342733  0.817804  0.462310
			 0.421830  0.796451  0.433273
			 0.312055  0.796940  0.517212
			 0.314789  0.906768  0.280499
			 0.401365  0.812799  0.422214
			-0.332444  0.855712  0.396532
			-0.615780  0.651884  0.442563
			 0.224699  0.850687  0.475229
			-0.025722  0.871996  0.488837
			-0.343886  0.830974  0.437293
			-0.620293 -0.775019  0.120759
			 0.580288  0.768480 -0.269637
			 0.686046  0.672937 -0.276580
			 0.630426  0.686344 -0.362623
			 0.790443  0.245090 -0.561365
			 0.818193  0.466593 -0.335933
			 0.594913 -0.137062 -0.792018
			 0.453533 -0.133830 -0.881134
			-0.256445 -0.862425  0.436416
			-0.245655 -0.952481  0.180095
			-0.269446 -0.850890  0.450982
			-0.009827 -0.998889  0.046091
			 0.201386 -0.799239 -0.566268
			 0.263813 -0.494127 -0.828397
			-0.846636 -0.463682  0.261164
			-0.905182 -0.417925  0.077355
			-0.835166 -0.495856  0.237958
			-0.898446 -0.422160  0.120727
			-0.884768 -0.465970  0.007523
			-0.840129 -0.328211  0.431812
			-0.765441 -0.329218  0.552915
			-0.591171 -0.610757  0.526776
			-0.731398 -0.347952  0.586503
			-0.448583 -0.770127  0.453517
			-0.564051 -0.553100  0.613129
			-0.578971 -0.582566  0.570446
			 0.517263 -0.019321 -0.855609
			 0.609838  0.076947 -0.788782
			 0.593488  0.029598 -0.804298
			 0.557753  0.148446 -0.816624
			 0.566776  0.010930 -0.823799
			 0.456131 -0.427013 -0.780772
			 0.211405 -0.573532 -0.791435
			 0.288459 -0.598472 -0.747411
			 0.271910 -0.742803 -0.611807
			 0.010636 -0.775967 -0.630684
			 0.099337 -0.799016 -0.593048
			 0.078702 -0.623006 -0.778248
			 0.188569 -0.576529 -0.795020
			-0.625696 -0.086929  0.775208
			-0.797300 -0.064404  0.600138
			-0.776042 -0.459022  0.432503
			-0.677156  0.530844  0.509573
			-0.684021  0.540261  0.490136
			-0.788601  0.351068  0.504837
			-0.777019  0.438889  0.451240
			-0.870908  0.043580  0.489510
			-0.899990  0.143952  0.411456
			-0.867994  0.106532  0.485013
			 0.483444  0.874376 -0.041814
			 0.271020  0.948678  0.162965
			 0.257203  0.836947  0.483080
			 0.419875  0.777110  0.468834
			 0.319622  0.886604  0.334328
			 0.204197  0.978421  0.031549
			 0.227746  0.964233  0.135597
			-0.714876  0.638778  0.284455
			-0.770228  0.512023  0.380240
			 0.072322  0.916470  0.393514
			-0.356903  0.780840  0.512746
			-0.487955  0.714444  0.501468
			-0.643628  0.665983  0.377106
			 0.644436  0.681984 -0.345833
			 0.609603  0.744435 -0.272399
			 0.793411  0.600899 -0.097054
			 0.741304  0.208986 -0.637804
			 0.861753  0.501057 -0.079521
			 0.793470  0.274163 -0.543361
			 0.489714 -0.104518 -0.865596
			 0.302184 -0.092007 -0.948799
			 0.434320  0.003383 -0.900752
			-0.263211 -0.897393  0.354127
			-0.272140 -0.860020  0.431631
			-0.221748 -0.956399 -0.190075
			-0.095325 -0.859601 -0.501996
			 0.018974 -0.916906 -0.398652
			-0.894428 -0.284251  0.345253
			-0.934421 -0.193128  0.299265
			-0.946462  0.046550  0.319443
			-0.989511 -0.099021  0.105180
			-0.874902 -0.025899  0.483607
			-0.956256  0.032879  0.290678
			-0.837575 -0.104849  0.536166
			-0.893306 -0.097209  0.438810
			-0.800989 -0.140521  0.581954
			-0.760128 -0.284859  0.584004
			-0.836307 -0.101563  0.538772
			-0.422782 -0.805145  0.415929
			-0.783771 -0.501623  0.366166
			-0.879575 -0.365356  0.304733
			-0.752923 -0.591291  0.288933
			-0.729039 -0.328045  0.600740
			-0.739372 -0.368675  0.563389
			-0.807700 -0.383231  0.448057
			 0.525839  0.045292 -0.849378
			 0.547455  0.141434 -0.824797
			 0.528319  0.142187 -0.837056
			 0.511102  0.148592 -0.846578
			 0.463900  0.260447 -0.846737
			 0.439115  0.370634 -0.818418
			 0.330198 -0.092327 -0.939385
			 0.269054 -0.423810 -0.864867
			 0.354479 -0.521266 -0.776290
			 0.079033 -0.615619 -0.784071
			-0.163530 -0.618905 -0.768254
			-0.182893 -0.638042 -0.747966
			-0.053068 -0.553962 -0.830849
			-0.319328 -0.408984 -0.854846
			-0.874312  0.100615  0.474821
			-0.925383  0.286959  0.247631
			-0.920034  0.083545  0.382828
			-0.972779  0.053357  0.225509
			-0.999098  0.004827  0.042196
			 0.401266  0.904935 -0.141700
			 0.546755  0.803999 -0.233761
			 0.162906  0.981224 -0.103258
			 0.288715  0.820626  0.493169
			 0.347879  0.843432  0.409393
			 0.278321  0.956199 -0.090673
			 0.232491  0.972597  0.001820
			-0.058916  0.975104  0.213778
			-0.868912  0.483523  0.105821
			-0.755304  0.487841  0.437637
			-0.852114  0.451084  0.265376
			-0.920902  0.382415  0.075488
			-0.341669  0.863009  0.372126
			-0.703967  0.528768  0.474167
			-0.577051  0.717024  0.391009
			-0.644183  0.520216  0.560717
			 0.679661  0.733028  0.027032
			 0.761707  0.647885  0.006932
			 0.541412  0.762369 -0.354494
			 0.658968  0.603345 -0.449150
			 0.374886  0.060636 -0.925086
			 0.175263 -0.214954 -0.960769
			 0.286885  0.144560 -0.946995
			 0.450149  0.168477 -0.876916
			-0.245191 -0.857989  0.451372
			-0.377986 -0.879315  0.289711
			-0.299876 -0.941158 -0.155871
			-0.126195 -0.764478 -0.632177
			-0.205917 -0.639643 -0.740578
			-0.965952  0.152715  0.208843
			-0.906400  0.204240  0.369763
			-0.870854  0.149657  0.468205
			-0.866413  0.071645  0.494161
			-0.845348  0.045485  0.532276
			-0.862036 -0.019599  0.506469
			-0.836311 -0.030470  0.547408
			-0.622400 -0.755888  0.203103
			-0.923832 -0.230829  0.305372
			-0.956332 -0.265166  0.122945
			-0.935355 -0.318142  0.154586
			-0.963416 -0.248659 -0.099988
			-0.827428 -0.537384 -0.163038
			-0.884246 -0.101167  0.455932
			 0.506545  0.158773 -0.847469
			 0.411728  0.266863 -0.871358
			 0.268710  0.513587 -0.814876
			 0.251064  0.484367 -0.838067
			 0.382855  0.427527 -0.818928
			 0.341939  0.527594 -0.777639
			 0.285939  0.587079 -0.757348
			 0.224632  0.617654 -0.753687
			 0.256383 -0.013464 -0.966482
			 0.042241 -0.155753 -0.986892
			-0.276809 -0.430749 -0.858972
			-0.167976 -0.595876 -0.785312
			-0.406861 -0.456440 -0.791282
			-0.377008 -0.497404 -0.781316
			-0.492439 -0.483062 -0.723985
			-0.476953 -0.166544 -0.863006
			-0.577852 -0.354747 -0.735011
			-0.519139 -0.208327 -0.828912
			-0.323562 -0.144614 -0.935091
			-0.980257  0.098261 -0.171582
			-0.975439 -0.083980 -0.203631
			-0.973209  0.188821  0.131192
			 0.125579  0.948642 -0.290360
			 0.310972  0.942655 -0.121235
			 0.287265  0.898933 -0.330755
			 0.330124  0.917531 -0.221707
			-0.243261  0.963549  0.111346
			 0.159442  0.941089 -0.298211
			-0.409068  0.880454  0.239717
			-0.530239  0.816609  0.228028
			-0.966449  0.256856  0.000650
			-0.900208  0.260260  0.349128
			-0.795549  0.347902  0.496050
			-0.765848  0.401249  0.502469
			-0.585263  0.760099  0.282341
			-0.735946  0.608350  0.297144
			-0.815387  0.379773  0.436941
			-0.750207  0.554410  0.360305
			 0.412725  0.906242 -0.091562
			 0.278665  0.788732 -0.547949
			-0.095429  0.894724 -0.436306
			 0.149088  0.801456 -0.579173
			-0.026286  0.159661 -0.986822
			-0.016652  0.459071 -0.888244
			 0.321935  0.544373 -0.774607
			-0.615343 -0.771427 -0.162029
			-0.446931 -0.843526 -0.297855
			-0.294711 -0.625756 -0.722202
			-0.510626 -0.422062 -0.749083
			-0.852749  0.187635  0.487454
			-0.831200  0.244117  0.499513
			-0.834871  0.068771  0.546133
			-0.841055  0.141897  0.522007
			-0.803209  0.119920  0.583502
			-0.800696 -0.018104  0.598797
			-0.842917 -0.120126  0.524462
			-0.840441 -0.059453  0.538632
			-0.901986 -0.105200  0.418754
			-0.953431 -0.140849  0.266705
			-0.975115 -0.220401 -0.023945
			-0.927650 -0.290739 -0.234387
			-0.776525 -0.355115 -0.520483
			 0.352690  0.125126 -0.927336
			 0.172421  0.537569 -0.825403
			 0.187352  0.333792 -0.923841
			 0.349005  0.240928 -0.905621
			-0.054824  0.715838 -0.696111
			 0.051549  0.673412 -0.737468
			 0.029448  0.635356 -0.771658
			 0.354085  0.667548 -0.654984
			 0.239561  0.681619 -0.691380
			 0.016735  0.703620 -0.710379
			-0.266476 -0.327502 -0.906495
			-0.307949 -0.396155 -0.865002
			-0.716811 -0.357379 -0.598718
			-0.559156 -0.374016 -0.739903
			-0.578652  0.005769 -0.815554
			-0.819179 -0.353144 -0.451923
			-0.661684 -0.159789 -0.732558
			-0.599439 -0.106983 -0.793238
			-0.542670 -0.310899 -0.780289
			-0.807555 -0.108470 -0.579731
			-0.396798 -0.607989 -0.687677
			-0.560365 -0.418591 -0.714684
			 0.066909  0.869672 -0.489075
			-0.022877  0.930317 -0.366043
			 0.311322  0.795947 -0.519180
			 0.339019  0.852700 -0.397453
			-0.477531  0.875069 -0.078858
			-0.472447  0.876597  0.091500
			-0.166413  0.967983 -0.187926
			 0.231647  0.822663 -0.519198
			 0.068688  0.787445 -0.612546
			-0.057873  0.915859 -0.397308
			-0.668987  0.682549  0.294248
			-0.655358  0.692790  0.300913
			-0.640684  0.734812  0.222655
			-0.610447  0.783818  0.113948
			-0.832234  0.325571  0.448765
			-0.728142  0.611197  0.310237
			-0.757934  0.528918  0.381814
			-0.136591  0.961843 -0.237067
			-0.242983  0.828233 -0.504965
			 0.111171  0.818586 -0.563523
			-0.803110  0.313883  0.506451
			-0.745901  0.303385  0.592949
			-0.748816  0.377200  0.544972
			-0.839867 -0.012550  0.542647
			-0.943431 -0.136314  0.302252
			-0.959399 -0.199818  0.199062
			-0.947697 -0.114409  0.297962
			-0.914827 -0.123071 -0.384636
			-0.994421 -0.104771 -0.012261
			-0.208879 -0.372923 -0.904045
			 0.055095  0.000685 -0.998481
			-0.054919  0.535409 -0.842806
			-0.176923  0.781888 -0.597788
			-0.289893 -0.005494 -0.957043
			-0.189514  0.736546 -0.649295
			-0.260952  0.735401 -0.625371
			-0.422539  0.788114 -0.447591
			-0.250225  0.729773 -0.636253
			-0.223327  0.795577 -0.563189
			 0.352159  0.759631 -0.546758
			 0.050550  0.697622 -0.714681
			-0.190982  0.781914 -0.593410
			-0.598479 -0.701745 -0.386493
			-0.751897  0.042295 -0.657923
			-0.679809 -0.485357 -0.549806
			-0.917791  0.064645 -0.391765
			-0.840220  0.093409 -0.534139
			-0.848351 -0.055886 -0.526477
			-0.890532 -0.144014 -0.431523
			-0.956006 -0.138574 -0.258553
			-0.663437 -0.617068 -0.423176
			-0.250903  0.856069 -0.451879
			-0.511733  0.833414 -0.208687
			-0.726668  0.639874  0.250030
			-0.666817  0.719597  0.193738
			-0.600856  0.799125 -0.019248
			-0.695929  0.550315  0.461342
			-0.542189  0.797598  0.264324
			-0.678403  0.681520  0.274409
			-0.789905  0.380809  0.480661
			-0.674457  0.538212  0.505407
			-0.979088  0.107178  0.172915
			-0.984122 -0.174449 -0.032721
			-0.962714 -0.026071 -0.269261
			-0.971827 -0.046608 -0.231039
			-0.586823 -0.537732 -0.605378
			-0.511000  0.498829 -0.700035
			-0.717540 -0.166163 -0.676407
			-0.462412  0.752292 -0.469288
			-0.797706  0.397761 -0.453267
			-0.477847  0.792641 -0.378659
			-0.349556  0.793137 -0.498742
			-0.564117  0.825666 -0.006944
			-0.396436  0.721255 -0.568005
			-0.895954 -0.034813 -0.442779
			-0.860460  0.307702 -0.406114
			-0.618837  0.695375  0.365369
			-0.615914  0.786653 -0.042736
			-0.470062  0.846357 -0.250444
			-0.884392  0.456947  0.095134
			-0.938961  0.149513 -0.309835
			-0.785592  0.338704 -0.517807
			-0.423911  0.719772 -0.549752
			-0.710343  0.545279 -0.445066
			-0.867043  0.395490 -0.303026
		</DataArray>
	</PointData>
	<Points>
		<DataArray type="Float32" NumberOfComponents="3" format="ascii">
			 0.014823 -0.007171  0.001562
			 0.014619 -0.007177  0.002148
			 0.014568 -0.007681  0.001829
			 0.014889 -0.006506  0.001555
			 0.014949 -0.006869  0.001026
			 0.014599 -0.007637  0.001192
			 0.014663 -0.007099  0.000117
			 0.014296 -0.007534  0.000276
			 0.014154 -0.006289  0.002845
			 0.014422 -0.007700  0.002482
			 0.014308 -0.008156  0.002106
			 0.014238 -0.008195  0.001572
			 0.015163 -0.006170  0.000376
			 0.014295 -0.005722  0.002459
			 0.014899 -0.005635  0.001169
			 0.015111 -0.006218 -0.000141
			 0.013870 -0.007896  0.000396
			 0.014299 -0.007261 -0.000859
			 0.013285 -0.008154 -0.000911
			 0.013855 -0.004907  0.002727
			 0.013663 -0.005346  0.003109
			 0.013745 -0.007313  0.003504
			 0.013774 -0.006182  0.003258
			 0.014141 -0.007664  0.002988
			 0.014081 -0.008150  0.002667
			 0.013831 -0.008450  0.002195
			 0.012985 -0.008618  0.001021
			 0.015224 -0.005576 -0.000099
			 0.015126 -0.005195  0.000392
			 0.015238 -0.004703 -0.000492
			 0.014172 -0.004378  0.001799
			 0.014814 -0.004887  0.000995
			 0.015219 -0.005024 -0.001104
			 0.015021 -0.005897 -0.000945
			 0.012914 -0.008441 -0.000683
			 0.012784 -0.008663 -0.000111
			 0.012910 -0.008670  0.000473
			 0.014234 -0.007214 -0.001403
			 0.014575 -0.006751 -0.001523
			 0.013422 -0.007705 -0.001786
			 0.012772 -0.004497  0.003664
			 0.013400 -0.003900  0.002645
			 0.014161 -0.003889  0.001505
			 0.013062 -0.005160  0.003705
			 0.013516 -0.006423  0.003656
			 0.013258 -0.006916  0.003927
			 0.013800 -0.007858  0.003303
			 0.013396 -0.007759  0.003682
			 0.012894 -0.007869  0.003831
			 0.013677 -0.008309  0.002918
			 0.013454 -0.008521  0.002524
			 0.013162 -0.008561  0.001533
			 0.012430 -0.008599  0.001591
			 0.015246 -0.004081 -0.001022
			 0.015128 -0.004131 -0.000348
			 0.014668 -0.004114  0.000770
			 0.014381 -0.003634  0.001065
			 0.014914 -0.005299 -0.001830
			 0.015179 -0.004254 -0.001619
			 0.012446 -0.008867  0.000203
			 0.011984 -0.008677 -0.001149
			 0.012274 -0.008367 -0.001894
			 0.012012 -0.009000  0.000425
			 0.013837 -0.007185 -0.002691
			 0.012826 -0.007712 -0.003407
			 0.014321 -0.006734 -0.002267
			 0.012408 -0.007959 -0.003219
			 0.012432 -0.005131  0.004184
			 0.012306 -0.004367  0.003980
			 0.011161 -0.002492  0.003444
			 0.012281 -0.002480  0.002341
			 0.013006 -0.003001  0.002164
			 0.013526 -0.002691  0.001288
			 0.013017 -0.006198  0.003976
			 0.011844 -0.006023  0.004552
			 0.012435 -0.006815  0.004259
			 0.012861 -0.007336  0.004056
			 0.013073 -0.008423  0.002933
			 0.012725 -0.008298  0.003399
			 0.012357 -0.007907  0.003849
			 0.012517 -0.008477  0.002189
			 0.012157 -0.008823  0.001127
			 0.011845 -0.008951  0.001513
			 0.015143 -0.003513 -0.000870
			 0.015141 -0.003595 -0.001916
			 0.014870 -0.003667 -0.000022
			 0.014403 -0.003022  0.000550
			 0.013807 -0.002567  0.000861
			 0.014154 -0.006421 -0.002853
			 0.014844 -0.004723 -0.002286
			 0.015008 -0.004108 -0.002191
			 0.011612 -0.008532 -0.001981
			 0.011538 -0.008991 -0.000235
			 0.010764 -0.008502 -0.001782
			 0.011832 -0.008289 -0.003275
			 0.010982 -0.008988  0.000300
			 0.011692 -0.008982  0.000875
			 0.013288 -0.007491 -0.003126
			 0.013834 -0.006557 -0.003233
			 0.012733 -0.007555 -0.003874
			 0.012289 -0.007972 -0.003804
			 0.011531 -0.008078 -0.004835
			 0.011686 -0.008286 -0.003888
			 0.011069 -0.008373 -0.005150
			 0.010671 -0.006393  0.005110
			 0.011194 -0.004603  0.004554
			 0.011334 -0.003463  0.004031
			 0.010877 -0.002713  0.003818
			 0.011333 -0.001430  0.002071
			 0.010486 -0.001847  0.003324
			 0.010765 -0.001444  0.002609
			 0.012790 -0.002265  0.001404
			 0.012431 -0.002191  0.001830
			 0.011746 -0.006726  0.004626
			 0.012221 -0.007444  0.004186
			 0.012138 -0.008479  0.002551
			 0.012223 -0.008296  0.003178
			 0.011734 -0.007750  0.004097
			 0.011866 -0.008728  0.002076
			 0.011038 -0.009100  0.000823
			 0.011407 -0.009147  0.001701
			 0.011199 -0.008838  0.002438
			 0.014720 -0.002708 -0.000585
			 0.015085 -0.002934 -0.001929
			 0.014959 -0.002537 -0.001468
			 0.014078 -0.002156  0.000140
			 0.013137 -0.001898  0.000760
			 0.014185 -0.005486 -0.003093
			 0.014841 -0.003181 -0.002698
			 0.014120 -0.004021 -0.003633
			 0.014685 -0.003782 -0.002815
			 0.011415 -0.008440 -0.003038
			 0.010429 -0.008561 -0.003518
			 0.010865 -0.008547 -0.002525
			 0.010285 -0.008485 -0.000688
			 0.009747 -0.008194 -0.000670
			 0.010564 -0.008870  0.000753
			 0.013328 -0.007045 -0.003592
			 0.013790 -0.005773 -0.003469
			 0.012633 -0.007204 -0.004250
			 0.011885 -0.007946 -0.004489
			 0.011927 -0.007384 -0.004907
			 0.010977 -0.008284 -0.005650
			 0.011287 -0.007658 -0.005667
			 0.011063 -0.008499 -0.003947
			 0.010508 -0.008625 -0.004724
			 0.010420 -0.008669 -0.005286
			 0.010343 -0.008629 -0.005790
			 0.010350 -0.005015  0.004962
			 0.010137 -0.005788  0.005150
			 0.011235 -0.006618  0.004872
			 0.010819 -0.006986  0.005004
			 0.010127 -0.006739  0.005086
			 0.010129 -0.003868  0.004647
			 0.010344 -0.004490  0.004792
			 0.010335 -0.003426  0.004463
			 0.009924 -0.002076  0.003761
			 0.011425 -0.001174  0.001469
			 0.010574 -0.000975  0.001748
			 0.009824 -0.001662  0.003414
			 0.011899 -0.000984  0.000473
			 0.012562 -0.001208  0.000365
			 0.011830 -0.007285  0.004454
			 0.011352 -0.007148  0.004757
			 0.011675 -0.008383  0.002854
			 0.011558 -0.007995  0.003323
			 0.011175 -0.007804  0.003775
			 0.011178 -0.007574  0.004320
			 0.010592 -0.008920  0.001331
			 0.010603 -0.008052  0.003339
			 0.010634 -0.008472  0.002744
			 0.010516 -0.008704  0.002127
			 0.014184 -0.001845 -0.000416
			 0.014855 -0.002376 -0.002370
			 0.014733 -0.002427 -0.002886
			 0.014431 -0.001861 -0.000957
			 0.014632 -0.001682 -0.002457
			 0.014367 -0.001269 -0.002020
			 0.013159 -0.005507 -0.003999
			 0.013769 -0.003246 -0.004206
			 0.014104 -0.002958 -0.003772
			 0.013592 -0.003726 -0.004249
			 0.009544 -0.008330 -0.002416
			 0.009091 -0.008350 -0.003435
			 0.009578 -0.008850 -0.005186
			 0.009802 -0.008291  0.000488
			 0.009232 -0.007907 -0.000048
			 0.009133 -0.007831  0.000707
			 0.009062 -0.008187 -0.002541
			 0.008479 -0.007691 -0.001111
			 0.008409 -0.007966 -0.002419
			 0.013317 -0.006294 -0.003765
			 0.012779 -0.005679 -0.004338
			 0.011680 -0.006138 -0.005369
			 0.011219 -0.006620 -0.005768
			 0.010975 -0.007791 -0.006055
			 0.010418 -0.008213 -0.006335
			 0.010211 -0.007114 -0.006901
			 0.010428 -0.007492 -0.006650
			 0.009489 -0.008889 -0.005745
			 0.009863 -0.008702 -0.006020
			 0.009765 -0.008392 -0.006415
			 0.009570 -0.005165  0.005157
			 0.009595 -0.006136  0.005129
			 0.010734 -0.007456  0.004659
			 0.010026 -0.007202  0.004724
			 0.009102 -0.006581  0.004696
			 0.009602 -0.007297  0.004254
			 0.009108 -0.006987  0.004240
			 0.009369 -0.004107  0.005005
			 0.009628 -0.003614  0.004734
			 0.009076 -0.002375  0.004219
			 0.008807 -0.002811  0.004505
			 0.011806 -0.000861 -0.000010
			 0.009065 -0.001184  0.003101
			 0.009063 -0.000729  0.002052
			 0.013219 -0.000824 -0.000722
			 0.013696 -0.001161 -0.000702
			 0.010603 -0.007721  0.003931
			 0.008326 -0.007011  0.001219