<?xml version="1.0"?>
<VTKFile type="PolyData" version="0.1" byte_order="LittleEndian" compressor="vtkZLibDataCompressor">
	<PolyData>
		<Piece NumberOfPoints="203" NumberOfVerts="0" NumberOfLines="0" NumberOfStrips="0" NumberOfPolys="403">
		<PointData Normals="Normals">
		<DataArray type="Float32" Name="Normals" NumberOfComponents="3" format="ascii">
			 0.495983  0.553139  0.669356
			 0.414914  0.541881  0.730897
			 0.538551  0.693108  0.479129
			 0.450950  0.371086  0.811750
			 0.304774  0.503533  0.808435
			 0.203811  0.630967  0.748560
			 0.647700  0.741383  0.175603
			 0.830881  0.456305  0.318470
			 0.471654  0.403767  0.783910
			 0.515107  0.688045  0.511134
			 0.097496  0.412282  0.905825
			 0.274919  0.179484  0.944566
			 0.606595  0.161211  0.778494
			 0.383169  0.205539  0.900520
			 0.787922 -0.171716  0.591348
			 0.777406 -0.321352  0.540714
			-0.619636  0.234283  0.749108
			-0.354411  0.253333  0.900120
			 0.364043  0.921001 -0.138672
			 0.561164  0.824099  0.077174
			 0.798475  0.519957  0.303450
			 0.851939  0.476485  0.217166
			 0.669733  0.346908  0.656592
			 0.373337  0.362147  0.854090
			-0.020956  0.984629  0.173396
			 0.800612  0.511787 -0.311600
			 0.814487 -0.568905 -0.113834
			-0.881009  0.041938  0.471237
			-0.989157 -0.103600  0.104090
			-0.085363  0.205250  0.974980
			 0.718743 -0.093822  0.688917
			 0.906324 -0.349324  0.237801
			 0.894117 -0.313825 -0.319483
			 0.814467 -0.556501 -0.164166
			-0.944189  0.109650  0.310619
			-0.753404  0.418840  0.506909
			 0.313347  0.147040  0.938186
			-0.453461  0.730684  0.510367
			 0.833919  0.539262 -0.117372
			 0.770559  0.627362 -0.112499
			-0.123498  0.917369 -0.378394
			 0.404646  0.828310 -0.387511
			 0.068805  0.892825 -0.445117
			 0.954949  0.273172  0.115969
			 0.961398  0.180021  0.208101
			 0.846211  0.183182 -0.500371
			 0.746490 -0.664088 -0.041726
			-0.820943 -0.298814 -0.486584
			-0.966419 -0.150012 -0.208642
			-0.996671 -0.063989 -0.050518
			-0.550408 -0.394612 -0.735753
			-0.539920 -0.328547 -0.774947
			-0.898744  0.066682  0.433374
			 0.011070  0.146227  0.989189
			 0.973034 -0.173755  0.151701
			 0.981468 -0.012542  0.191212
			 0.944674 -0.267213  0.190235
			 0.022769  0.155267  0.987610
			 0.263566  0.189617  0.945821
			 0.632345 -0.311680 -0.709221
			 0.220453 -0.422968 -0.878919
			 0.149947 -0.460509 -0.874898
			 0.392668 -0.705934 -0.589466
			-0.854146  0.520030  0.001855
			-0.717545  0.598952  0.355508
			-0.332573  0.912456  0.238366
			 0.353345  0.075413  0.932448
			 0.917135 -0.075544  0.391352
			 0.265574  0.742399  0.615072
			-0.278882  0.958923 -0.051876
			 0.527584  0.678220 -0.511540
			 0.720566  0.402581 -0.564547
			 0.973560  0.177710 -0.143529
			 0.401218  0.833111 -0.380722
			 0.188122  0.947837 -0.257323
			 0.541757  0.410973 -0.733213
			 0.994631 -0.092261  0.046869
			 0.576250 -0.775547 -0.257802
			-0.751120 -0.405554 -0.520908
			-0.545101 -0.412618 -0.729802
			-0.684963 -0.003338 -0.728570
			-0.727450  0.237481 -0.643754
			-0.613575 -0.310864 -0.725872
			-0.135883 -0.579321 -0.803693
			-0.963413 -0.012723  0.267720
			 0.650106  0.175633  0.739267
			 0.958262 -0.031029 -0.284203
			-0.845890  0.031237  0.532442
			-0.093538  0.160691  0.982562
			-0.561986 -0.302741 -0.769753
			 0.399926 -0.178585 -0.898981
			-0.210799  0.904706 -0.370230
			-0.206461  0.975505  0.075920
			 0.767227  0.415746  0.488383
			 0.806721 -0.322859  0.494938
			 0.928668 -0.329298  0.170699
			 0.780835 -0.520316  0.345787
			 0.483604  0.612275 -0.625497
			 0.661346  0.222354 -0.716367
			 0.879328  0.077651 -0.469843
			 0.982124 -0.179741 -0.055902
			 0.290664  0.174919 -0.940701
			-0.058349  0.645922 -0.761170
			-0.338602 -0.382424 -0.859710
			-0.442541  0.583602 -0.680857
			 0.848051  0.153167  0.507296
			 0.036531  0.114544  0.992746
			 0.882303 -0.000159 -0.470682
			-0.769810 -0.182138 -0.611734
			-0.921793 -0.003919  0.387664
			-0.735792 -0.003638  0.677198
			 0.181066 -0.149417 -0.972055
			 0.576366  0.329418 -0.747854
			 0.863289  0.076126 -0.498935
			 0.919093  0.392269 -0.037339
			 0.778087 -0.619862  0.101745
			 0.886167 -0.461509  0.041446
			 0.734730 -0.049432 -0.676556
			 0.935912 -0.204795 -0.286581
			 0.426949 -0.292719 -0.855588
			-0.429131 -0.048697 -0.901929
			 0.576336 -0.465358 -0.671773
			 0.590268 -0.453276 -0.667925
			 0.044721  0.146603 -0.988184
			 0.859994  0.100113  0.500388
			-0.075077  0.082152  0.993788
			-0.749155 -0.055873  0.660034
			 0.856178  0.003332 -0.516671
			-0.855925 -0.169066 -0.488680
			-0.863403 -0.139504 -0.484844
			 0.158421 -0.123794 -0.979580
			 0.859629 -0.408270 -0.307171
			 0.592171 -0.372860 -0.714359
			 0.779047 -0.576297 -0.246915
			 0.865151 -0.444660 -0.231927
			 0.837514 -0.234136 -0.493712
			 0.898214 -0.315496 -0.306063
			 0.845522  0.140791  0.515044
			-0.216638  0.093187  0.971794
			-0.867001 -0.063429  0.494254
			-0.816363 -0.169156 -0.552211
			 0.868560  0.006910 -0.495535
			 0.211055 -0.090843 -0.973244
			 0.800178  0.149406  0.580855
			-0.315987  0.099211  0.943562
			-0.949627 -0.072317  0.304925
			-0.694248 -0.190600 -0.694040
			 0.463648 -0.075140 -0.882828
			 0.924195  0.069291 -0.375584
			 0.920824  0.140405  0.363826
			-0.267076  0.133984  0.954316
			-0.963011 -0.088844  0.254396
			-0.679180 -0.195789 -0.707377
			 0.352210 -0.129859 -0.926868
			 0.874039  0.014440 -0.485641
			 0.935842  0.032765 -0.350893
			 0.959530  0.039188 -0.278868
			 0.578405  0.253497  0.775362
			-0.207164  0.204879  0.956612
			-0.910180  0.005444  0.414176
			-0.870181 -0.189539 -0.454818
			-0.158696 -0.235110 -0.958926
			 0.682281 -0.115200 -0.721957
			 0.825519  0.108604 -0.553827
			 0.862236  0.354156  0.362109
			-0.063914  0.323128  0.944195
			-0.749417  0.124153  0.650354
			-0.975187 -0.048450 -0.216015
			-0.475726 -0.188792 -0.859094
			 0.322634 -0.082991 -0.942878
			 0.349214  0.051436 -0.935630
			 0.837658  0.312988 -0.447624
			 0.711979  0.600977  0.363198
			 0.024749  0.534062  0.845083
			-0.540230  0.218871  0.812556
			-0.833208  0.191809  0.518627
			-0.876301 -0.075165 -0.475864
			-0.332185 -0.200726 -0.921609
			-0.028919 -0.098393 -0.994727
			 0.494659 -0.126319 -0.859858
			-0.031857 -0.367316 -0.929550
			 0.916051  0.171673 -0.362463
			 0.854899  0.302527  0.421456
			 0.135091  0.084729  0.987204
			-0.313007 -0.182994  0.931955
			-0.411478 -0.141217  0.900413
			-0.968839 -0.186140  0.163411
			-0.583535 -0.279612 -0.762433
			-0.304487 -0.437963 -0.845858
			 0.785680 -0.594692 -0.170435
			 0.253516 -0.822907 -0.508481
			-0.003938 -0.828792 -0.559544
			 0.804539 -0.551222  0.221070
			 0.509233 -0.610603  0.606503
			-0.199706 -0.716592  0.668291
			-0.013557 -0.815503  0.578594
			 0.237234 -0.717442  0.654978
			-0.295999 -0.846677  0.442178
			 0.410302 -0.644309  0.645382
			-0.285621 -0.762764 -0.580183
			-0.112608 -0.786454 -0.607298
			-0.006507 -0.891118 -0.453725
			 0.284800 -0.957862  0.037284
		</DataArray>
	</PointData>
	<Points>
		<DataArray type="Float32" NumberOfComponents="3" format="ascii">
			-0.008714 -0.012826  0.011922
			-0.005751 -0.012393  0.009177
			-0.009357 -0.010036  0.007856
			-0.005836 -0.017989  0.010815
			-0.011490 -0.014190  0.014937
			-0.001042 -0.013203  0.007970
			-0.009587 -0.008686  0.004887
			-0.011123 -0.006937  0.008266
			-0.013215 -0.008795  0.012765
			 0.004926 -0.013329  0.007780
			-0.011262 -0.016953  0.017075
			-0.011080 -0.019733  0.018229
			-0.007166 -0.022235  0.014586
			-0.003872 -0.023347  0.012984
			-0.000484 -0.021743  0.011659
			 0.002050 -0.017995  0.009994
			-0.025039 -0.008617  0.009391
			-0.022600  0.000150  0.008779
			-0.005391 -0.011931  0.004384
			-0.006989 -0.010853  0.002674
			-0.009776 -0.007221  0.002900
			-0.010900 -0.007066  0.004913
			-0.014180 -0.002495  0.010496
			-0.014385 -0.004782  0.011625
			-0.000688 -0.012641  0.003623
			 0.006213 -0.009919  0.001606
			 0.001171 -0.019370  0.000979
			-0.027201 -0.016895  0.007715
			-0.027263 -0.023614  0.007713
			-0.011510 -0.026966  0.018995
			-0.009094 -0.036189  0.014504
			-0.002777 -0.027425  0.011193
			-0.006957 -0.038475  0.005361
			-0.003149 -0.023945  0.001898
			-0.027652 -0.007253  0.003922
			-0.025526  0.004302  0.003453
			-0.016029  0.003307  0.011050
			-0.016565  0.009458  0.008913
			-0.009685 -0.006639  0.000925
			-0.006101 -0.011527  0.000355
			 0.003168 -0.012140 -0.000014
			-0.003865 -0.014444 -0.003771
			 0.000227 -0.015392 -0.004438
			-0.012136 -0.002561  0.002978
			-0.011781 -0.004516  0.005016
			 0.003736 -0.017105 -0.007017
			-0.000570 -0.020324 -0.002135
			-0.026834 -0.017932  0.003210
			-0.027814 -0.009128 -0.000839
			-0.027055 -0.032266  0.011806
			-0.019743 -0.029313  0.002405
			-0.019500 -0.035780  0.004815
			-0.026040 -0.038879  0.014619
			-0.013654 -0.034003  0.020165
			-0.006137 -0.040569  0.009859
			-0.007815 -0.049835  0.014590
			-0.004471 -0.033061  0.009986
			-0.015520 -0.039126  0.020773
			-0.015260 -0.047309  0.022131
			-0.009276 -0.049715  0.007928
			-0.009268 -0.042353  0.003672
			-0.008486 -0.035129  0.000490
			-0.007115 -0.026690 -0.004722
			-0.028321  0.006336 -0.003634
			-0.026861  0.006069 -0.000548
			-0.017285  0.011343  0.003255
			-0.015357  0.008150  0.010269
			-0.012463 -0.000144  0.005497
			-0.010229  0.011257  0.008116
			-0.013178  0.010488  0.009742
			-0.007740 -0.011973 -0.002722
			-0.010966 -0.007764 -0.002189
			-0.011983 -0.002286  0.000202
			-0.006664 -0.015670 -0.007238
			-0.004121 -0.016919 -0.007897
			 0.002128 -0.017355 -0.010678
			-0.012036  0.000749  0.002667
			-0.002206 -0.022298 -0.007160
			-0.026110 -0.010656 -0.003416
			-0.018624 -0.018964 -0.001087
			-0.025204 -0.000674 -0.010929
			-0.026911  0.002944 -0.009452
			-0.020181 -0.042502  0.007588
			-0.008341 -0.022540 -0.010901
			-0.025608 -0.042737  0.016368
			-0.007666 -0.069125  0.025577
			-0.009599 -0.070744  0.018446
			-0.024556 -0.047852  0.018535
			-0.014015 -0.070733  0.025700
			-0.019383 -0.050637  0.010018
			-0.011116 -0.071821  0.012425
			-0.016279  0.011983 -0.006461
			-0.016319  0.012146 -0.001409
			-0.007100  0.011211  0.004532
			-0.011660  0.005528  0.006181
			-0.011011  0.004319  0.002439
			-0.009296  0.007642  0.002884
			-0.011323 -0.012143 -0.005843
			-0.013733 -0.009489 -0.005649
			-0.013222 -0.004130 -0.004468
			-0.011811  0.000631  0.000208
			-0.016543 -0.010502 -0.008000
			-0.008958 -0.015086 -0.012608
			-0.024802 -0.006831 -0.008613
			-0.017269  0.009055 -0.010983
			-0.003527 -0.097181  0.028574
			-0.011010 -0.097853  0.029224
			-0.006602 -0.099055  0.022925
			-0.020548 -0.071261  0.017357
			-0.022394 -0.072183  0.024932
			-0.019080 -0.098461  0.030054
			-0.010793 -0.099704  0.016770
			-0.011417  0.010028 -0.011276
			-0.006964  0.010672 -0.006821
			-0.005171  0.010977  0.000103
			-0.008128  0.007480  0.000066
			-0.010493  0.004523  0.000154
			-0.015063 -0.006286 -0.007030
			-0.012698  0.000330 -0.003141
			-0.017284 -0.008048 -0.008299
			-0.021637  0.001640 -0.012487
			-0.015723 -0.003174 -0.011095
			-0.017002 -0.005548 -0.010122
			-0.015004  0.005051 -0.014066
			-0.001902 -0.117483  0.031475
			-0.008729 -0.118618  0.031817
			-0.016497 -0.119127  0.031035
			-0.005038 -0.118462  0.025591
			-0.018081 -0.099691  0.023002
			-0.016151 -0.119174  0.025712
			-0.008780 -0.119076  0.019882
			-0.013548  0.004899 -0.009863
			-0.015594  0.001018 -0.013028
			-0.008967  0.007762 -0.004901
			-0.011210  0.004318 -0.004404
			-0.014754 -0.002771 -0.008016
			-0.014871  0.000421 -0.008549
			-0.000529 -0.138117  0.033173
			-0.008696 -0.139344  0.033072
			-0.013992 -0.140012  0.030945
			-0.013352 -0.139035  0.025877
			-0.003030 -0.139136  0.028764
			-0.007424 -0.139403  0.022247
			 0.001183 -0.162503  0.037559
			-0.006564 -0.164007  0.037147
			-0.012079 -0.164801  0.034128
			-0.009909 -0.163225  0.029049
			-0.003629 -0.162055  0.026292
			-0.000825 -0.162913  0.031307
			 0.003580 -0.187165  0.040381
			-0.004026 -0.188058  0.040096
			-0.008312 -0.189183  0.036362
			-0.006101 -0.188188  0.032633
			-0.000030 -0.187224  0.030550
			 0.003142 -0.187567  0.034797
			 0.000011 -0.187811  0.031452
			 0.005377 -0.212413  0.039724
			 0.005309 -0.211865  0.043653
			-0.000642 -0.211918  0.045857
			-0.004708 -0.212914  0.043240
			-0.003940 -0.213930  0.038421
			-0.001637 -0.214316  0.035827
			 0.002274 -0.213747  0.037198
			 0.007103 -0.223076  0.043483
			 0.006682 -0.221256  0.046859
			 0.001049 -0.222100  0.048268
			-0.003584 -0.224031  0.045977
			-0.003667 -0.224985  0.042367
			-0.000837 -0.225949  0.038975
			 0.003124 -0.225482  0.039989
			 0.005600 -0.232965  0.040174
			 0.010181 -0.230479  0.044736
			 0.010114 -0.229923  0.049335
			 0.004541 -0.229540  0.052339
			-0.000156 -0.232577  0.050018
			-0.004004 -0.233448  0.048293
			-0.004510 -0.234841  0.043795
			-0.001106 -0.234266  0.040381
			 0.003510 -0.233045  0.040042
			 0.008288 -0.240273  0.040753
			 0.004991 -0.240892  0.041000
			 0.012822 -0.236019  0.044892
			 0.014063 -0.233464  0.050313
			 0.010178 -0.235557  0.055045
			 0.004889 -0.237586  0.056111
			 0.001133 -0.239277  0.052473
			-0.006015 -0.241890  0.048676
			-0.001943 -0.241983  0.044509
			 0.000672 -0.241648  0.041950
			 0.012917 -0.241602  0.046665
			 0.009410 -0.243676  0.043255
			 0.003665 -0.243547  0.042997
			 0.012263 -0.240984  0.051220
			 0.009751 -0.241508  0.054184
			 0.006772 -0.242521  0.053265
			 0.004299 -0.243309  0.050507
			 0.000318 -0.244179  0.049408
			-0.002594 -0.246553  0.048142
			-0.000803 -0.245551  0.049697
			-0.003990 -0.245680  0.046105
			-0.001392 -0.244938  0.045709
			 0.000542 -0.244301  0.044292
			 0.002500 -0.244073  0.046853
		</DataArray>
	</Points>
			<Polys>
				<DataArray type="Int32" Name="connectivity" format="ascii">
					0 1 2 
					0 3 1 
					4 3 0 
					4 0 2 
					1 5 2 
					1 3 5 
					5 6 2 
					2 7 8 
					4 2 8 
					2 6 7 
					5 3 9 
					10 3 4 
					11 3 10 
					12 3 11 
					13 3 12 
					14 3 13 
					15 3 14 
					9 3 15 
					4 16 10 
					4 17 16 
					8 17 4 
					5 9 6 
					9 18 6 
					19 20 6 
					18 19 6 
					6 21 7 
					6 20 21 
					7 22 23 
					8 7 23 
					7 21 22 
					8 23 17 
					9 24 18 
					9 25 24 
					9 15 26 
					25 9 26 
					10 27 11 
					10 16 27 
					11 28 29 
					11 27 28 
					11 30 12 
					29 30 11 
					12 30 13 
					13 30 14 
					14 30 31 
					14 32 33 
					31 32 14 
					15 14 33 
					26 15 33 
					27 16 34 
					16 35 34 
					16 17 35 
					17 36 37 
					22 36 17 
					23 22 17 
					17 37 35 
					24 19 18 
					19 38 20 
					19 39 38 
					24 40 19 
					19 41 39 
					42 41 19 
					40 42 19 
					20 43 21 
					20 38 43 
					21 44 22 
					21 43 44 
					22 44 36 
					25 40 24 
					25 45 40 
					25 26 46 
					45 25 46 
					46 26 33 
					27 47 28 
					27 48 47 
					27 34 48 
					29 28 49 
					50 28 47 
					51 28 50 
					51 49 28 
					29 52 53 
					29 49 52 
					53 30 29 
					54 30 55 
					56 30 54 
					31 30 56 
					57 30 53 
					58 30 57 
					55 30 58 
					56 32 31 
					59 32 55 
					60 32 59 
					61 32 60 
					62 32 61 
					33 32 62 
					54 32 56 
					55 32 54 
					55 32 59 
					46 33 62 
					34 63 48 
					34 64 63 
					34 35 64 
					35 65 64 
					37 65 35 
					36 66 37 
					36 67 66 
					44 67 36 
					37 66 68 
					37 68 65 
					37 69 68 
					37 69 68 
					70 71 38 
					39 70 38 
					38 72 43 
					38 71 72 
					41 70 39 
					45 42 40 
					41 73 70 
					74 73 41 
					42 74 41 
					75 74 42 
					45 75 42 
					43 76 44 
					43 72 76 
					44 76 67 
					45 46 77 
					75 45 77 
					77 46 62 
					47 48 78 
					79 47 78 
					50 47 79 
					48 80 78 
					48 81 80 
					48 63 81 
					82 49 51 
					82 52 49 
					50 79 83 
					62 50 83 
					51 50 62 
					61 51 62 
					82 51 61 
					53 52 84 
					82 84 52 
					53 84 57 
					55 58 85 
					86 55 85 
					59 55 86 
					57 87 58 
					57 84 87 
					58 87 88 
					85 58 88 
					59 89 60 
					89 59 90 
					90 59 86 
					60 82 61 
					89 82 60 
					83 77 62 
					63 91 81 
					92 91 63 
					64 92 63 
					65 92 64 
					65 93 92 
					65 68 93 
					66 94 68 
					67 94 66 
					67 95 94 
					76 95 67 
					96 93 68 
					94 96 68 
					70 97 71 
					73 97 70 
					97 98 71 
					71 99 72 
					71 98 99 
					72 100 76 
					72 99 100 
					73 101 97 
					102 101 73 
					74 102 73 
					75 102 74 
					75 77 83 
					102 75 83 
					76 100 95 
					78 80 103 
					79 78 103 
					79 101 102 
					83 79 102 
					79 103 101 
					80 104 103 
					91 104 80 
					81 91 80 
					89 84 82 
					89 87 84 
					85 105 86 
					106 105 85 
					88 106 85 
					86 107 90 
					105 107 86 
					87 89 108 
					109 87 108 
					88 87 109 
					110 106 88 
					109 110 88 
					108 89 90 
					107 111 90 
					111 108 90 
					91 112 104 
					91 113 112 
					91 114 113 
					92 114 91 
					92 93 114 
					115 114 93 
					96 115 93 
					95 96 94 
					95 116 96 
					100 116 95 
					116 115 96 
					97 101 98 
					98 117 99 
					98 101 117 
					99 118 100 
					99 117 118 
					100 118 116 
					101 119 117 
					101 103 119 
					103 120 121 
					122 103 121 
					119 103 122 
					104 120 103 
					104 123 120 
					104 112 123 
					105 124 107 
					125 124 105 
					106 125 105 
					126 125 106 
					110 126 106 
					107 127 111 
					124 127 107 
					108 128 109 
					128 108 111 
					128 110 109 
					129 126 110 
					128 129 110 
					127 130 111 
					130 128 111 
					131 112 113 
					132 123 112 
					131 132 112 
					133 113 114 
					133 131 113 
					115 133 114 
					134 133 115 
					116 134 115 
					118 134 116 
					117 135 118 
					117 119 135 
					118 135 134 
					119 122 135 
					132 120 123 
					121 120 132 
					121 132 131 
					136 121 131 
					122 121 136 
					135 122 136 
					124 137 127 
					138 137 124 
					125 138 124 
					139 138 125 
					126 139 125 
					140 139 126 
					129 140 126 
					127 141 130 
					137 141 127 
					130 129 128 
					142 140 129 
					130 142 129 
					141 142 130 
					136 131 133 
					134 136 133 
					135 136 134 
					137 143 141 
					144 143 137 
					138 144 137 
					145 144 138 
					139 145 138 
					146 145 139 
					140 146 139 
					142 147 140 
					147 146 140 
					141 148 142 
					143 148 141 
					148 147 142 
					143 149 148 
					150 149 143 
					144 150 143 
					151 150 144 
					145 151 144 
					152 151 145 
					146 152 145 
					147 153 146 
					153 152 146 
					154 155 147 
					148 154 147 
					153 147 155 
					149 154 148 
					149 156 154 
					149 157 156 
					150 157 149 
					150 158 157 
					150 159 158 
					151 159 150 
					151 160 159 
					152 160 151 
					153 161 152 
					152 161 160 
					153 162 161 
					155 162 153 
					154 162 155 
					154 156 162 
					156 163 162 
					164 163 156 
					157 164 156 
					165 164 157 
					158 165 157 
					166 165 158 
					159 166 158 
					167 166 159 
					160 167 159 
					161 168 160 
					168 167 160 
					169 168 161 
					162 169 161 
					163 169 162 
					163 170 169 
					163 171 170 
					164 171 163 
					164 172 171 
					165 172 164 
					165 173 172 
					165 174 173 
					166 174 165 
					166 175 174 
					167 175 166 
					168 176 167 
					167 176 175 
					168 177 176 
					169 177 168 
					169 178 177 
					178 169 170 
					171 179 170 
					180 178 170 
					170 179 180 
					171 181 179 
					172 181 171 
					172 182 181 
					173 182 172 
					173 183 182 
					173 184 183 
					174 184 173 
					174 185 184 
					175 185 174 
					176 186 175 
					175 186 185 
					176 187 186 
					177 187 176 
					177 188 187 
					178 188 177 
					178 180 188 
					179 189 190 
					181 189 179 
					179 190 180 
					180 191 188 
					180 190 191 
					181 192 189 
					182 192 181 
					182 193 192 
					183 193 182 
					183 194 193 
					183 195 194 
					184 195 183 
					184 196 195 
					185 196 184 
					186 197 185 
					185 198 196 
					185 197 198 
					186 199 197 
					187 199 186 
					187 200 199 
					188 200 187 
					188 201 200 
					188 191 201 
					189 202 190 
					192 202 189 
					190 202 191 
					191 202 201 
					193 202 192 
					194 202 193 
					195 202 194 
					196 202 195 
					198 202 196 
					197 202 198 
					199 202 197 
					200 202 199 
					201 202 200 
				</DataArray>
				<DataArray type="Int32" Name="offsets" format="ascii">
					3 6 9 12 15 18 21 24 27 30 33 36 39 42 45 48 51 54 57 60 63 66 69 72 75 78 81 84 87 90 93 96 99 102 105 108 111 114 117 120 123 126 129 132 135 138 141 144 147 150 153 156 159 162 165 168 171 174 177 180 183 186 189 192 195 198 201 204 207 210 213 216 219 222 225 228 231 234 237 240 243 246 249 252 255 258 261 264 267 270 273 276 279 282 285 288 291 294 297 300 303 306 309 312 315 318 321 324 327 330 333 336 339 342 345 348 351 354 357 360 363 366 369 372 375 378 381 384 387 390 393 396 399 402 405 408 411 414 417 420 423 426 429 432 435 438 441 444 447 450 453 456 459 462 465 468 471 474 477 480 483 486 489 492 495 498 501 504 507 510 513 516 519 522 525 528 531 534 537 540 543 546 549 552 555 558 561 564 567 570 573 576 579 582 585 588 591 594 597 600 603 606 609 612 615 618 621 624 627 630 633 636 639 642 645 648 651 654 657 660 663 666 669 672 675 678 681 684 687 690 693 696 699 702 705 708 711 714 717 720 723 726 729 732 735 738 741 744 747 750 753 756 759 762 765 768 771 774 777 780 783 786 789 792 795 798 801 804 807 810 813 816 819 822 825 828 831 834 837 840 843 846 849 852 855 858 861 864 867 870 873 876 879 882 885 888 891 894 897 900 903 906 909 912 915 918 921 924 927 930 933 936 939 942 945 948 951 954 957 960 963 966 969 972 975 978 981 984 987 990 993 996 999 1002 1005 1008 1011 1014 1017 1020 1023 1026 1029 1032 1035 1038 1041 1044 1047 1050 1053 1056 1059 1062 1065 1068 1071 1074 1077 1080 1083 1086 1089 1092 1095 1098 1101 1104 1107 1110 1113 1116 1119 1122 1125 1128 1131 1134 1137 1140 1143 1146 1149 1152 1155 1158 1161 1164 1167 1170 1173 1176 1179 1182 1185 1188 1191 1194 1197 1200 1203 1206 1209 
				</DataArray>
			</Polys>
		</Piece>
	</PolyData>
</VTKFile>
