<?xml version="1.0"?>
<VTKFile type="PolyData" version="0.1" byte_order="LittleEndian" compressor="vtkZLibDataCompressor">
	<PolyData>
		<Piece NumberOfPoints="670" NumberOfVerts="0" NumberOfLines="0" NumberOfStrips="0" NumberOfPolys="1342">
		<PointData Normals="Normals">
		<DataArray type="Float32" Name="Normals" NumberOfComponents="3" format="ascii">
			 0.983012  0.148806 -0.107444
			 0.996835  0.079459 -0.002303
			 0.810129  0.001498  0.586250
			 0.833711  0.126078  0.537616
			 0.937264  0.233016 -0.259304
			 0.771776  0.190248 -0.606767
			 0.451327  0.203749 -0.868787
			 0.841336 -0.022426  0.540047
			 0.989367  0.138804  0.043430
			 0.822927  0.212464 -0.526925
			 0.649050 -0.056959  0.758611
			 0.437759 -0.058724  0.897172
			 0.956004  0.155367 -0.248833
			 0.994512  0.103562  0.014852
			 0.861065  0.025947  0.507832
			 0.578092  0.133686  0.804946
			 0.328626  0.040399  0.943596
			 0.578023  0.189320 -0.793755
			 0.467354  0.168885 -0.867789
			 0.259921  0.184817 -0.947778
			 0.919840  0.088030  0.382290
			 0.718044 -0.008633  0.695944
			 0.879889  0.118016 -0.460291
			 0.515243 -0.100907  0.851083
			 0.682906 -0.043846  0.729189
			 0.182403 -0.152189  0.971374
			 0.183373 -0.119826  0.975713
			 0.156271 -0.082979  0.984223
			 0.276808 -0.138404  0.950906
			 0.953919  0.046238  0.296481
			 0.973423  0.034818  0.226353
			 0.949809  0.013191  0.312553
			 0.875175  0.123728 -0.467718
			 0.840243 -0.080039  0.536270
			 0.630906 -0.239691  0.737906
			 0.706554 -0.089285  0.702004
			 0.528874  0.021652  0.848424
			-0.005860 -0.040630  0.999157
			 0.196707  0.014040  0.980362
			 0.031370 -0.071985  0.996912
			 0.550461  0.136370 -0.823648
			 0.329364  0.185446 -0.925813
			 0.204054  0.170192 -0.964052
			 0.129250  0.100902 -0.986465
			 0.219118  0.144899 -0.964879
			 0.268591  0.093775 -0.958679
			 0.579288  0.128832 -0.804877
			 0.912109 -0.013783  0.409716
			 0.999932 -0.000913  0.011623
			 0.435415  0.077258 -0.896909
			 0.951267 -0.055040 -0.303418
			 0.567482 -0.067837 -0.820587
			 0.455997  0.089412 -0.885478
			 0.484467 -0.103565  0.868658
			 0.710264 -0.061070  0.701281
			 0.036614 -0.163796  0.985815
			-0.059616 -0.139023  0.988493
			 0.202542 -0.135559  0.969846
			 0.347689 -0.124846  0.929261
			 0.436291 -0.089125  0.895381
			 0.888366 -0.028624  0.458243
			 0.989671 -0.058615  0.130829
			 0.503257  0.173562 -0.846527
			 0.864556 -0.040780 -0.500879
			 0.692077  0.031948 -0.721116
			 0.820843 -0.103086  0.561775
			 0.552680 -0.145482  0.820597
			 0.902806 -0.161933  0.398396
			 0.702459 -0.570181  0.425963
			 0.872849 -0.377367  0.309402
			 0.599740 -0.333724  0.727283
			 0.304670 -0.337333  0.890720
			 0.068808 -0.301930  0.950844
			 0.234838 -0.587402  0.774474
			 0.368404 -0.103911  0.923840
			-0.015307 -0.111109  0.993690
			-0.054722 -0.129685  0.990044
			 0.214023  0.258078 -0.942120
			 0.237808  0.100083 -0.966142
			 0.124627  0.179392 -0.975852
			 0.218178  0.123160 -0.968106
			 0.141651  0.109701 -0.983819
			 0.209204  0.080357 -0.974565
			 0.203222  0.067558 -0.976799
			 0.931986 -0.059094  0.357645
			 0.998132 -0.056387  0.023529
			 0.185360  0.053959 -0.981188
			 0.985177 -0.107896 -0.133360
			 0.880614 -0.102279 -0.462663
			 0.731863 -0.095579 -0.674716
			 0.335326 -0.250058 -0.908310
			 0.352302  0.053938 -0.934331
			 0.139595 -0.167742 -0.975897
			 0.721744 -0.067956  0.688816
			 0.893478 -0.039928  0.447328
			 0.039038 -0.127064  0.991126
			-0.095039 -0.135213  0.986248
			-0.158037 -0.168577  0.972937
			-0.133675 -0.083472  0.987504
			-0.163768 -0.149664  0.975080
			-0.138833 -0.086467  0.986534
			 0.211880 -0.079239  0.974078
			 0.493574 -0.064188  0.867332
			 0.860980 -0.394728 -0.320785
			 0.486141  0.067602 -0.871262
			 0.299221  0.242648 -0.922816
			 0.485405 -0.147298 -0.861792
			 0.448413 -0.893330  0.029810
			 0.731322 -0.661963 -0.164238
			-0.121242 -0.132734  0.983708
			-0.034684 -0.401368  0.915260
			-0.115596 -0.285432  0.951402
			-0.017503 -0.926166  0.376710
			-0.172086 -0.661834  0.729632
			-0.114084 -0.083778  0.989932
			-0.122846 -0.038615  0.991674
			-0.014598 -0.122639  0.992344
			 0.104304  0.314065 -0.943655
			 0.129461  0.044581 -0.990582
			 0.086550  0.209343 -0.974005
			 0.044060  0.250522 -0.967108
			 0.053475  0.114357 -0.992000
			 0.129752  0.111726 -0.985232
			-0.003329  0.112576 -0.993638
			 0.934540 -0.067267  0.349442
			-0.065954  0.087181 -0.994007
			-0.146537  0.016424 -0.989069
			-0.044906 -0.019124 -0.998808
			 0.973556 -0.146423 -0.175355
			 0.965210 -0.098221  0.242326
			 0.669851 -0.141400 -0.728907
			 0.851111 -0.191233 -0.488917
			 0.356306 -0.163711 -0.919916
			 0.002660 -0.088459 -0.996076
			 0.047946 -0.134702 -0.989726
			 0.668820 -0.047878  0.741881
			 0.807358 -0.073323  0.585488
			-0.065380 -0.132958  0.988963
			-0.045401 -0.099631  0.993988
			-0.232476 -0.122329  0.964878
			-0.175021 -0.103744  0.979084
			-0.260950 -0.108262  0.959262
			-0.397533 -0.054890  0.915945
			 0.266283 -0.048193  0.962689
			 0.057002 -0.059539  0.996597
			 0.399024 -0.059909  0.914981
			 0.586038 -0.073028  0.806986
			 0.410459 -0.545058 -0.731050
			 0.243864 -0.791325 -0.560656
			 0.174475 -0.052068 -0.983284
			 0.073551 -0.331764 -0.940491
			 0.221020 -0.419701 -0.880342
			-0.035021 -0.966755 -0.253294
			-0.070861 -0.366787  0.927602
			-0.140620 -0.497325  0.856092
			-0.312394 -0.931981  0.183905
			-0.255320 -0.822338  0.508501
			-0.035650 -0.076445  0.996436
			-0.289752  0.080129  0.953742
			-0.428741  0.028140  0.902989
			 0.099490 -0.383203  0.918290
			 0.085042  0.228288 -0.969872
			-0.002007 -0.328484 -0.944507
			 0.074958 -0.131916 -0.988423
			 0.048856 -0.302779 -0.951808
			 0.122090 -0.174110 -0.977128
			 0.053307  0.341451 -0.938387
			 0.072522  0.303898 -0.949940
			 0.048681  0.230471 -0.971861
			-0.094371  0.188702 -0.977489
			-0.094131  0.217513 -0.971508
			-0.160518  0.066235 -0.984808
			-0.136027  0.184338 -0.973404
			-0.142427  0.108118 -0.983883
			-0.222193  0.094627 -0.970400
			-0.249181  0.076685 -0.965416
			-0.332530 -0.026580 -0.942718
			-0.189974 -0.019723 -0.981591
			-0.109906  0.000263 -0.993942
			-0.086708 -0.022014 -0.995991
			 0.936694 -0.225142 -0.268170
			 0.961794 -0.263179  0.075431
			 0.920191 -0.161296  0.356695
			 0.656800 -0.208584 -0.724642
			 0.202884 -0.195281 -0.959533
			 0.748088 -0.238670 -0.619194
			 0.890234 -0.272914 -0.364695
			-0.026505 -0.061656 -0.997745
			-0.068826 -0.159304 -0.984827
			-0.051757 -0.104531 -0.993174
			 0.754782 -0.092516  0.649420
			-0.140809 -0.063931  0.987970
			-0.342762 -0.113226  0.932574
			-0.248724 -0.090675  0.964321
			-0.436854 -0.100148  0.893940
			-0.637322 -0.114392  0.762060
			-0.647739 -0.015145  0.761712
			 0.020061 -0.050701  0.998512
			 0.211678 -0.066883  0.975048
			 0.414727 -0.074040  0.906929
			 0.588566 -0.094129  0.802951
			 0.016581 -0.645073 -0.763941
			-0.123245 -0.876591 -0.465188
			-0.132936 -0.838889 -0.527819
			-0.077985 -0.626625 -0.775409
			-0.202587 -0.953255 -0.224193
			 0.057831 -0.586867  0.807615
			-0.228900 -0.663573  0.712233
			-0.091843 -0.913778  0.395695
			-0.001175 -0.273032  0.962004
			-0.215026 -0.195774  0.956785
			-0.268212  0.016085  0.963226
			-0.243261  0.116938  0.962886
			-0.522684  0.150813  0.839081
			 0.122712 -0.470475  0.873839
			 0.115927  0.206218 -0.971615
			-0.031228 -0.564776 -0.824653
			 0.113121 -0.451184 -0.885233
			 0.075398 -0.056089 -0.995575
			 0.126527 -0.619892 -0.774419
			 0.028851 -0.395765 -0.917898
			-0.071497  0.364059 -0.928628
			-0.118230  0.275359 -0.954044
			 0.022857  0.219909 -0.975253
			 0.025518  0.266155 -0.963592
			-0.151661  0.242872 -0.958129
			-0.180215  0.136284 -0.974140
			-0.025201  0.200651 -0.979339
			-0.285186  0.174628 -0.942430
			-0.350127 -0.050248 -0.935353
			-0.627306 -0.044664 -0.777491
			-0.491867 -0.107376 -0.864024
			-0.099864 -0.032705 -0.994463
			-0.082937 -0.045033 -0.995537
			 0.953624 -0.281740  0.105946
			 0.831406 -0.220814  0.509907
			 0.750375 -0.147459  0.644355
			 0.530662 -0.216269 -0.819527
			-0.043319 -0.175586 -0.983511
			-0.099232 -0.200209 -0.974715
			 0.725174 -0.197363 -0.659675
			 0.888347 -0.334066 -0.315022
			 0.957593 -0.282096  0.058632
			 0.801416 -0.207527 -0.560950
			-0.063486 -0.170114 -0.983377
			-0.143738 -0.120078 -0.982304
			-0.205200 -0.112816 -0.972196
			-0.078181 -0.115295 -0.990250
			-0.200455 -0.081048  0.976345
			-0.432110 -0.101409  0.896101
			-0.436488 -0.120698  0.891577
			-0.348825 -0.093162  0.932546
			-0.522892 -0.112258  0.844974
			-0.697244 -0.149520  0.701067
			-0.795562 -0.065976  0.602269
			-0.913136 -0.068236  0.401903
			-0.701768  0.122181  0.701850
			-0.037803 -0.115796  0.992553
			 0.328859 -0.094036  0.939686
			 0.143662 -0.076855  0.986638
			 0.444590 -0.137760  0.885077
			 0.653540 -0.111053  0.748701
			-0.166303 -0.792671 -0.586529
			-0.002024 -0.927275 -0.374376
			-0.024041 -0.786953 -0.616544
			 0.095886 -0.758592  0.644471
			 0.088819 -0.987799 -0.127925
			-0.243134 -0.310107  0.919086
			-0.500699 -0.077278  0.862165
			-0.655042 -0.214687  0.724452
			-0.483707  0.124828  0.866283
			-0.748412  0.175098  0.639703
			-0.101724 -0.553304  0.826745
			-0.153196  0.257078 -0.954171
			 0.050289 -0.726458 -0.685368
			-0.246783  0.025610 -0.968732
			-0.145402 -0.132258 -0.980493
			 0.083571 -0.842058 -0.532874
			-0.023750 -0.744843 -0.666817
			 0.169387 -0.829078 -0.532858
			-0.233317 -0.589712 -0.773177
			-0.328570 -0.306733 -0.893284
			-0.430806  0.293598 -0.853350
			-0.515204  0.156432 -0.842670
			 0.089290  0.274128 -0.957539
			-0.483251  0.307413 -0.819735
			-0.494464  0.218645 -0.841249
			-0.268630  0.194741 -0.943353
			-0.002929  0.176439 -0.984307
			-0.242533  0.199478 -0.949414
			-0.219563  0.250796 -0.942812
			-0.597908  0.193818 -0.777779
			-0.665603  0.156928 -0.729621
			-0.340079 -0.088998 -0.936176
			-0.753728 -0.068348 -0.653623
			-0.903126 -0.076463 -0.422512
			-0.963024  0.000853 -0.269416
			-0.167032 -0.082233 -0.982516
			-0.091328 -0.099029 -0.990885
			 0.921001 -0.175531  0.347773
			 0.647121 -0.154875  0.746490
			 0.775042 -0.217628  0.593252
			 0.920589 -0.278598  0.273676
			 0.225419 -0.118838 -0.966987
			 0.708161 -0.282935 -0.646882
			-0.184576 -0.151798 -0.971025
			-0.148906 -0.079547 -0.985647
			 0.935324 -0.329934 -0.127721
			 0.913784 -0.306970 -0.266022
			 0.838379 -0.347168 -0.420232
			 0.925909 -0.337160 -0.170339
			-0.150028 -0.162989 -0.975154
			-0.089387 -0.248520 -0.964494
			-0.135081 -0.251271 -0.958445
			-0.163174 -0.215363 -0.962805
			-0.125244 -0.162451 -0.978736
			-0.318239 -0.089594  0.943767
			-0.182891 -0.105100  0.977499
			-0.395900 -0.082012  0.914624
			-0.481430 -0.093195  0.871516
			-0.720048 -0.143233  0.678981
			-0.782391 -0.108172  0.613322
			-0.936435  0.022607  0.350111
			-0.946975 -0.056851  0.316236
			-0.925630  0.147806 -0.348372
			-0.984640  0.079046 -0.155678
			 0.029131 -0.198501  0.979668
			-0.128812 -0.181950  0.974834
			 0.158057 -0.125351  0.979441
			-0.203499 -0.136049  0.969577
			 0.120978 -0.164420  0.978943
			 0.277551 -0.128390  0.952093
			 0.392468 -0.199922  0.897775
			 0.244282 -0.277606  0.929118
			 0.199777 -0.161828  0.966385
			 0.522623 -0.157265  0.837934
			-0.139344 -0.886128  0.441995
			-0.379910 -0.918984  0.105531
			 0.018541 -0.989154 -0.145708
			-0.052346 -0.914496 -0.401195
			-0.550668 -0.539727  0.636757
			-0.638065 -0.317700  0.701384
			-0.729472  0.000212  0.684010
			-0.915834 -0.081746  0.393148
			-0.859042 -0.216944  0.463661
			-0.857531  0.087436  0.506947
			-0.938849  0.082919  0.334197
			-0.902409  0.131927  0.410186
			-0.960421  0.139167  0.241296
			-0.601768  0.184739 -0.777012
			-0.655849 -0.190232 -0.730530
			-0.534313 -0.771968 -0.344348
			-0.721357 -0.549610 -0.421395
			-0.876639  0.170226 -0.450030
			-0.929362  0.012128 -0.368971
			-0.838318  0.173446 -0.516855
			-0.824286  0.117728 -0.553799
			-0.962215  0.176851 -0.207040
			-0.943500  0.230283 -0.238280
			-0.738535 -0.143252 -0.658821
			-0.392690 -0.108404 -0.913260
			-0.964494 -0.071658 -0.254197
			-0.990123 -0.110511  0.086282
			-0.994809 -0.056996 -0.084305
			-0.189072 -0.035764 -0.981312
			-0.375572 -0.100429 -0.921336
			-0.128629 -0.131446 -0.982943
			-0.166699 -0.113901 -0.979407
			 0.698693 -0.184081  0.691334
			 0.641423 -0.227398  0.732712
			 0.602499 -0.203546  0.771728
			 0.720399 -0.172694  0.671715
			 0.801557 -0.242177  0.546678
			 0.978869 -0.189772  0.076166
			 0.922791 -0.094244  0.373596
			 0.278737 -0.237174 -0.930620
			-0.099947 -0.162384 -0.981653
			 0.667240 -0.303072 -0.680395
			 0.805344 -0.368443 -0.464404
			 0.797982 -0.316649 -0.512795
			 0.900057 -0.236343 -0.366114
			 0.966529 -0.096203 -0.237838
			-0.132376 -0.216587 -0.967247
			-0.171831 -0.160686 -0.971933
			 0.031647 -0.284359 -0.958195
			-0.282775 -0.206918 -0.936602
			-0.111289 -0.279396 -0.953705
			-0.137515 -0.237392 -0.961631
			-0.145623 -0.202585 -0.968377
			-0.127229 -0.207933 -0.969833
			-0.116077 -0.224041 -0.967642
			-0.128762 -0.159553 -0.978756
			-0.494937 -0.127540  0.859518
			-0.389114 -0.153661  0.908283
			-0.750802 -0.174036  0.637187
			-0.867891 -0.025866  0.496080
			-0.877921 -0.123603  0.462576
			-0.877187 -0.242553  0.414381
			-0.881882 -0.057126  0.467997
			-0.041883 -0.232272  0.971749
			 0.039189 -0.301456  0.952674
			-0.310228 -0.255778  0.915607
			-0.108120 -0.309108  0.944861
			 0.411499 -0.263506  0.872487
			 0.553062 -0.239614  0.797940
			 0.522283 -0.181108  0.833319
			 0.247755 -0.202408  0.947443
			 0.103605 -0.322959  0.940725
			 0.516904 -0.236942  0.822599
			-0.859693 -0.473466  0.191721
			-0.839368 -0.310047  0.446466
			-0.875317 -0.333959  0.349703
			-0.978725 -0.063851  0.194988
			-0.950783 -0.218105  0.220097
			-0.989571 -0.103481  0.100202
			-0.986710  0.096841  0.130482
			-0.990642 -0.059811 -0.122681
			-0.960318 -0.278793  0.008043
			-0.872415 -0.482368  0.078823
			-0.998169 -0.018109 -0.057713
			-0.681687 -0.183891 -0.708158
			-0.959637 -0.120902 -0.253928
			-0.902827 -0.246144 -0.352585
			-0.978514 -0.195574  0.065276
			-0.969671 -0.141890  0.199013
			-0.336208 -0.196211 -0.921122
			-0.509777 -0.209912 -0.834304
			-0.272943 -0.186320 -0.943815
			-0.087257 -0.144123 -0.985705
			 0.585726 -0.264912  0.765994
			 0.761590 -0.220027  0.609564
			 0.663359 -0.158694  0.731280
			 0.590102 -0.246725  0.768705
			 0.995561  0.084948  0.040529
			 0.885131 -0.008582  0.465263
			 0.522759 -0.351410 -0.776682
			 0.633775 -0.365320 -0.681815
			 0.191213 -0.274102 -0.942500
			 0.828347 -0.204678 -0.521486
			-0.071008 -0.132557 -0.988629
			-0.024084 -0.126874 -0.991626
			-0.147310 -0.163833 -0.975427
			-0.139729 -0.136716 -0.980706
			-0.197066 -0.032190 -0.979862
			 0.072624 -0.273379 -0.959161
			 0.107930 -0.288593 -0.951349
			-0.149466 -0.102767 -0.983412
			-0.154992 -0.201835 -0.967078
			-0.173852 -0.183101 -0.967600
			-0.199689 -0.240894 -0.949786
			-0.158310 -0.168519 -0.972903
			-0.142474 -0.109384 -0.983736
			-0.697560 -0.276036  0.661222
			-0.897333 -0.278462  0.342421
			-0.014044 -0.369326  0.929194
			-0.331763 -0.274963  0.902402
			-0.436798 -0.316953  0.841872
			-0.198144 -0.357444  0.912674
			-0.281583 -0.316731  0.905755
			-0.150290 -0.353745  0.923189
			 0.602681 -0.178212  0.777828
			-0.026331 -0.104067  0.994222
			 0.481989 -0.133382  0.865965
			 0.430457  0.078911  0.899155
			 0.194309  0.050622  0.979633
			-0.051804 -0.292878  0.954745
			 0.659883  0.022134  0.751042
			 0.655075 -0.098332  0.749138
			 0.593347 -0.092200  0.799649
			-0.948410 -0.223980  0.224392
			-0.798812 -0.276317 -0.534367
			-0.959354 -0.279052 -0.042079
			-0.470824 -0.258405 -0.843535
			-0.409423 -0.176939 -0.895022
			-0.625483 -0.242922 -0.741458
			 0.743621  0.060410  0.665867
			 0.886100  0.087196  0.455219
			 0.910262  0.414014  0.003962
			 0.960320  0.263321  0.091908
			 0.943776  0.252368  0.213536
			 0.957936 -0.067973 -0.278814
			 0.920279  0.159306 -0.357362
			 0.449765 -0.274604 -0.849885
			 0.126425 -0.247270 -0.960664
			 0.227589 -0.267227 -0.936372
			 0.523560 -0.141207 -0.840206
			 0.742645 -0.088834 -0.663767
			-0.123833 -0.068658 -0.989925
			-0.118444  0.141082 -0.982887
			-0.050520  0.443620 -0.894790
			-0.119051  0.338988 -0.933228
			 0.223412 -0.223435 -0.948770
			 0.129459 -0.066147 -0.989376
			 0.020541  0.088813 -0.995837
			-0.403161 -0.212269 -0.890170
			-0.398581 -0.244033 -0.884071
			-0.344194 -0.072159 -0.936122
			-0.137708  0.075667 -0.987578
			-0.214912  0.139463 -0.966624
			-0.654099 -0.343534  0.673899
			-0.903767 -0.301993  0.303323
			-0.868403 -0.349055  0.352187
			-0.495949 -0.280276  0.821876
			-0.339355 -0.279567  0.898154
			-0.383325 -0.248358  0.889595
			-0.374341 -0.188754  0.907877
			-0.369321 -0.211258  0.904971
			-0.253717 -0.196606  0.947087
			 0.615957  0.036101  0.786952
			 0.032314  0.231847  0.972215
			-0.272634  0.065777  0.959867
			-0.313962 -0.036090  0.948749
			 0.656939  0.077926  0.749906
			 0.335187  0.347896  0.875567
			 0.614623  0.325375  0.718589
			 0.611567  0.401310  0.681862
			-0.943472 -0.331170 -0.013681
			-0.973190 -0.164624 -0.160625
			-0.851241 -0.095176 -0.516072
			-0.567466 -0.187498 -0.801765
			-0.842959 -0.124336 -0.523413
			 0.660293  0.365263  0.656198
			 0.819856  0.386924  0.422050
			 0.915802  0.326836  0.233420
			 0.621342  0.778895 -0.085184
			 0.840118  0.538269  0.066836
			 0.797471  0.449447 -0.402538
			 0.863244  0.495965  0.093961
			 0.676681  0.119907 -0.726447
			 0.410957  0.023815 -0.911344
			-0.114096  0.211135 -0.970775
			 0.027936  0.290641 -0.956424
			 0.244336  0.738392 -0.628551
			 0.237416  0.530210 -0.813948
			 0.049145  0.756915 -0.651663
			-0.048069  0.652189 -0.756531
			-0.070290  0.773561 -0.629812
			-0.044638  0.588331 -0.807387
			 0.321729  0.153799 -0.934257
			 0.203963  0.221731 -0.953538
			-0.687386 -0.092275 -0.720407
			-0.641842 -0.043565 -0.765598
			-0.361694  0.175258 -0.915676
			-0.578962  0.207101 -0.788614
			-0.116067  0.264503 -0.957375
			-0.204071  0.346226 -0.915687
			-0.391046  0.628852 -0.672033
			-0.720971 -0.322548  0.613321
			-0.958512 -0.258994  0.119068
			-0.729581 -0.257377  0.633616
			-0.856579 -0.131398  0.499005
			-0.651672 -0.172570  0.738609
			-0.514803 -0.173119  0.839647
			-0.413807  0.106407  0.904125
			-0.497672  0.007231  0.867335
			 0.165872  0.484976  0.858653
			-0.250374  0.632953  0.732587
			-0.286266  0.338385  0.896408
			-0.360480  0.459351  0.811819
			-0.418501  0.264579  0.868824
			 0.445743  0.734452  0.511755
			 0.574119  0.710232  0.407379
			 0.581173  0.476206  0.659898
			 0.602902  0.745860  0.283199
			 0.532257  0.599376  0.597872
			-0.968554 -0.191756 -0.158531
			-0.981607 -0.076374 -0.174968
			-0.975454  0.217469 -0.034582
			-0.933987  0.114638 -0.338417
			 0.668532  0.713147  0.210920
			 0.604257  0.666727 -0.436289
			 0.589603  0.806637  0.041284
			 0.423916  0.826998 -0.369282
			 0.224242  0.973885  0.035557
			 0.294650  0.952629  0.075363
			 0.595594  0.360847 -0.717675
			-0.100081  0.663763 -0.741217
			 0.270379  0.948171 -0.166934
			 0.364505  0.922102 -0.129865
			 0.438072  0.468328 -0.767308
			 0.034613  0.857366 -0.513542
			 0.097110  0.789344 -0.606222
			 0.093362  0.841560 -0.532034
			-0.156790  0.912868 -0.376948
			-0.871674  0.436984 -0.221877
			-0.728181  0.581585 -0.362646
			-0.147106  0.559052 -0.815978
			-0.189398  0.944416 -0.268714
			-0.103826  0.991374  0.079992
			-0.378660  0.908430  0.177120
			-0.982096 -0.165816  0.089402
			-0.759359  0.009323  0.650605
			-0.913174 -0.010609  0.407431
			-0.695937 -0.081599  0.713452
			-0.628070  0.048141  0.776667
			-0.520298  0.350027  0.778955
			-0.416665  0.772568  0.479092
			-0.269258  0.755184  0.597659
			-0.001036  0.762791  0.646644
			 0.051367  0.917551  0.394285
			-0.433681  0.887158  0.157709
			-0.438113  0.606546  0.663445
			-0.276447  0.960155  0.040983
			 0.367890  0.828420  0.422347
			 0.446771  0.837738 -0.313993
			 0.434303  0.881122  0.187095
			 0.336318  0.937562 -0.088699
			 0.554406  0.808238  0.198456
			 0.381782  0.782102  0.492503
			-0.973366  0.104569  0.204021
			-0.964218  0.262258  0.038783
			-0.827005  0.553724  0.097226
			 0.303675  0.952001  0.038407
			 0.292678  0.942596 -0.160784
			 0.284208  0.958634 -0.015720
			 0.106598  0.991471  0.074978
			 0.263349  0.939461  0.219225
			 0.271755  0.930137  0.246972
			 0.390207  0.919850  0.040192
			 0.483349  0.855433  0.186035
			 0.340221  0.933289 -0.114987
			-0.025111  0.998066 -0.056870
			-0.317239  0.940164  0.124301
			-0.234674  0.894462  0.380613
			-0.006670  0.930307  0.366722
			 0.038330  0.903978  0.425857
			-0.427701  0.842789  0.326770
			-0.067055  0.936790  0.343405
			-0.841841  0.215648  0.494772
			-0.839503  0.157925  0.519898
			-0.813388  0.085010  0.575476
			-0.687787  0.400274  0.605582
			-0.500958  0.775816  0.383601
			-0.161317  0.984664 -0.066441
			-0.036699  0.996580  0.074036
			-0.471393  0.881463  0.028491
			-0.305683  0.905113 -0.295514
			-0.432169  0.890498 -0.142282
			-0.531397  0.814685 -0.232176
			-0.198635  0.953898 -0.224994
			-0.272596  0.901072 -0.337285
			 0.192049  0.943074 -0.271530
			 0.097110  0.900255 -0.424393
			 0.347440  0.934009 -0.083144
			 0.350526  0.923525 -0.155672
			-0.858160  0.404545  0.316078
			-0.622642  0.717808  0.311558
			 0.372950  0.917017  0.141378
			 0.032873  0.933982  0.355805
			-0.296268  0.884463  0.360488
			-0.375694  0.825693  0.420814
			-0.034154  0.874637  0.483573
			-0.257533  0.874034  0.411996
			 0.119137  0.904126  0.410320
			-0.345421  0.860413  0.374666
			-0.233559  0.944970  0.229091
			-0.680176  0.560937  0.471922
			-0.009943  0.995139 -0.097976
			-0.234156  0.892154 -0.386305
			-0.429962  0.841904 -0.326085
			-0.401148  0.915982  0.007592
			-0.396856  0.899568  0.182435
			-0.106477  0.994306  0.004198
			-0.028554  0.999067 -0.032395
			-0.236484  0.971067  0.033248
			-0.298830  0.900483  0.315960
			-0.300948  0.844317  0.443350
			-0.012974  0.961512  0.274456
			-0.122658  0.963475  0.238057
			-0.288194  0.927469  0.238214
		</DataArray>
	</PointData>
	<Points>
		<DataArray type="Float32" NumberOfComponents="3" format="ascii">
			 0.003813 -0.020436 -0.002064
			 0.003761 -0.019926 -0.001846
			 0.003376 -0.020413 -0.000889
			 0.003495 -0.020918 -0.000944
			 0.003876 -0.020945 -0.002281
			 0.003405 -0.019433 -0.002445
			 0.003277 -0.020453 -0.002755
			 0.003470 -0.019402 -0.000960
			 0.003665 -0.018905 -0.001409
			 0.003381 -0.018924 -0.002294
			 0.003026 -0.019394 -0.000525
			 0.002259 -0.020400 -0.000089
			 0.003980 -0.021654 -0.002495
			 0.004169 -0.022462 -0.002256
			 0.003733 -0.022435 -0.000920
			 0.003163 -0.021922 -0.000489
			 0.002385 -0.021412 -0.000139
			 0.003485 -0.021216 -0.002966
			 0.002899 -0.018935 -0.002674
			 0.002935 -0.019891 -0.002772
			 0.003454 -0.018391 -0.000971
			 0.003277 -0.018892 -0.000747
			 0.003335 -0.017906 -0.001987
			 0.002464 -0.019387 -0.000093
			 0.002847 -0.018378 -0.000316
			 0.001574 -0.019891  0.000201
			 0.001595 -0.020399  0.000103
			 0.001864 -0.020905  0.000022
			 0.001602 -0.018875  0.000325
			 0.004038 -0.023463 -0.001800
			 0.004145 -0.023974 -0.002016
			 0.003961 -0.022954 -0.001583
			 0.004135 -0.023488 -0.002922
			 0.003715 -0.024463 -0.001125
			 0.003306 -0.025680 -0.000901
			 0.003476 -0.023592 -0.000692
			 0.003193 -0.022930 -0.000381
			 0.001686 -0.022930 -0.000030
			 0.002311 -0.022928 -0.000061
			 0.001401 -0.021918  0.000008
			 0.003806 -0.023091 -0.003161
			 0.003524 -0.022103 -0.003181
			 0.001985 -0.021480 -0.003236
			 0.002298 -0.020461 -0.003011
			 0.002446 -0.019953 -0.002932
			 0.002409 -0.018939 -0.002847
			 0.002910 -0.018426 -0.002563
			 0.003267 -0.017373 -0.000730
			 0.003296 -0.016893 -0.001873
			 0.002599 -0.017418 -0.002686
			 0.003293 -0.015882 -0.001902
			 0.003047 -0.016396 -0.002292
			 0.002702 -0.016911 -0.002585
			 0.002291 -0.018879  0.000075
			 0.002994 -0.017137 -0.000324
			 0.000596 -0.020400  0.000193
			 0.000369 -0.020913  0.000082
			 0.001513 -0.018368  0.000431
			 0.002017 -0.018370  0.000260
			 0.001998 -0.017864  0.000327
			 0.004019 -0.024476 -0.001790
			 0.004355 -0.024995 -0.002449
			 0.003840 -0.024002 -0.003256
			 0.004289 -0.025510 -0.002896
			 0.004111 -0.024801 -0.003134
			 0.003717 -0.025479 -0.001340
			 0.003083 -0.024452 -0.000471
			 0.004137 -0.025996 -0.001996
			 0.003630 -0.026870 -0.001778
			 0.003975 -0.026504 -0.001996
			 0.003340 -0.026416 -0.001117
			 0.002775 -0.025186 -0.000472
			 0.002261 -0.024932 -0.000267
			 0.002858 -0.026883 -0.001127
			 0.002721 -0.023941 -0.000179
			 0.002201 -0.023435 -0.000057
			 0.000235 -0.023799 -0.000343
			 0.002261 -0.023509 -0.003656
			 0.001316 -0.018948 -0.003058
			 0.000798 -0.021996 -0.003541
			 0.000910 -0.018447 -0.003130
			 0.000969 -0.019967 -0.003309
			 0.001403 -0.018442 -0.003008
			 0.002127 -0.018018 -0.002817
			 0.003345 -0.016363 -0.000771
			 0.003427 -0.015867 -0.001223
			 0.001349 -0.016923 -0.002942
			 0.003419 -0.015370 -0.001678
			 0.003291 -0.014874 -0.002137
			 0.003081 -0.015387 -0.002364
			 0.002712 -0.015898 -0.002595
			 0.001577 -0.016414 -0.002864
			 0.001721 -0.015402 -0.002857
			 0.002932 -0.015545 -0.000118
			 0.003244 -0.015852 -0.000554
			 0.001014 -0.018368  0.000486
			 0.000039 -0.018879  0.000399
			-0.000168 -0.019897  0.000208
			-0.000604 -0.021422 -0.000049
			-0.000394 -0.020406  0.000067
			-0.000374 -0.020913  0.000013
			 0.001524 -0.017354  0.000531
			 0.002410 -0.015333  0.000298
			 0.004146 -0.026017 -0.002959
			 0.003148 -0.024919 -0.003838
			 0.002884 -0.024447 -0.003851
			 0.003413 -0.025531 -0.003720
			 0.003408 -0.027143 -0.002232
			 0.003900 -0.026716 -0.002446
			 0.001497 -0.024453 -0.000243
			 0.002041 -0.025542 -0.000492
			 0.001518 -0.024961 -0.000340
			 0.002641 -0.027270 -0.001580
			 0.002358 -0.026788 -0.001144
			 0.000987 -0.023995 -0.000317
			-0.000833 -0.021929 -0.000107
			 0.000259 -0.024461 -0.000390
			 0.000370 -0.023525 -0.004004
			 0.002148 -0.024530 -0.004043
			 0.000641 -0.023985 -0.004152
			-0.000421 -0.022510 -0.003735
			 0.000015 -0.020987 -0.003489
			 0.000643 -0.017941 -0.003107
			 0.000454 -0.019463 -0.003297
			 0.003459 -0.014340 -0.000788
			-0.000365 -0.017540 -0.003126
			-0.000886 -0.016933 -0.003051
			-0.000241 -0.013898 -0.003094
			 0.003630 -0.013346 -0.001693
			 0.003594 -0.013838 -0.001014
			 0.002997 -0.014562 -0.002600
			 0.003363 -0.013362 -0.002376
			 0.002534 -0.015397 -0.002755
			 0.001498 -0.013889 -0.003032
			 0.002012 -0.014392 -0.003007
			 0.002897 -0.013311  0.000083
			 0.003083 -0.013821 -0.000130
			 0.000268 -0.018371  0.000472
			 0.000227 -0.017357  0.000620
			-0.000475 -0.018376  0.000374
			-0.000247 -0.017868  0.000478
			-0.001134 -0.020413 -0.000091
			-0.001607 -0.020925 -0.000277
			 0.001651 -0.015328  0.000633
			 0.000930 -0.015834  0.000722
			 0.002120 -0.014318  0.000492
			 0.002693 -0.012801  0.000297
			 0.003427 -0.026363 -0.003364
			 0.003178 -0.026884 -0.002917
			 0.002660 -0.025034 -0.003984
			 0.002924 -0.025642 -0.003838
			 0.003179 -0.026036 -0.003664
			 0.002916 -0.027284 -0.002246
			 0.000538 -0.025178 -0.000544
			 0.001816 -0.025978 -0.000696
			 0.002148 -0.027138 -0.001822
			 0.001624 -0.026836 -0.001392
			-0.001753 -0.023959 -0.000258
			-0.001803 -0.022443 -0.000300
			-0.001833 -0.021433 -0.000407
			-0.000201 -0.025369 -0.000565
			-0.000357 -0.023881 -0.004185
			 0.001677 -0.025520 -0.003879
			 0.000413 -0.024541 -0.004201
			 0.000922 -0.025042 -0.004066
			-0.000565 -0.025051 -0.004222
			-0.001133 -0.023217 -0.003992
			-0.001661 -0.022582 -0.003790
			-0.001934 -0.022009 -0.003662
			-0.000252 -0.020481 -0.003461
			-0.000730 -0.020989 -0.003502
			-0.001063 -0.018959 -0.003122
			-0.000776 -0.019973 -0.003224
			-0.001545 -0.019467 -0.003091
			-0.001081 -0.018452 -0.003091
			-0.001358 -0.017823 -0.002930
			-0.001874 -0.016931 -0.002730
			-0.001422 -0.015922 -0.002941
			-0.000823 -0.013391 -0.002959
			-0.000007 -0.013391 -0.003135
			 0.003595 -0.012851 -0.002149
			 0.003863 -0.012329 -0.001471
			 0.003618 -0.012963 -0.000797
			 0.003023 -0.013372 -0.002836
			 0.002482 -0.013494 -0.003078
			 0.003196 -0.012866 -0.002791
			 0.003801 -0.011843 -0.002378
			 0.000479 -0.013055 -0.003146
			 0.001732 -0.013384 -0.003090
			 0.001217 -0.012880 -0.003085
			 0.003351 -0.012928 -0.000356
			-0.000075 -0.015839  0.000677
			-0.000971 -0.018255  0.000237
			-0.000975 -0.016353  0.000442
			-0.001656 -0.019546 -0.000222
			-0.002159 -0.019089 -0.000468
			-0.002223 -0.020429 -0.000681
			 0.000614 -0.014317  0.000809