<?xml version="1.0"?>
<VTKFile type="PolyData" version="0.1" byte_order="LittleEndian" compressor="vtkZLibDataCompressor">
	<PolyData>
		<Piece NumberOfPoints="1475" NumberOfVerts="0" NumberOfLines="0" NumberOfStrips="0" NumberOfPolys="2953">
		<PointData Normals="Normals">
		<DataArray type="Float32" Name="Normals" NumberOfComponents="3" format="ascii">
			-0.873753 -0.276067  0.400429
			-0.893000 -0.302189  0.333515
			-0.930509 -0.205173  0.303408
			-0.859420 -0.220116  0.461460
			-0.865881 -0.213778  0.452271
			-0.875616 -0.310838  0.369696
			-0.984368 -0.112187  0.135771
			-0.832814 -0.375008  0.407172
			-0.904591 -0.344766  0.250703
			-0.939241 -0.110801 -0.324882
			-0.954572 -0.290670  0.065604
			-0.888012 -0.255017  0.382624
			-0.891990 -0.257979  0.371216
			-0.903832 -0.253627  0.344616
			-0.923403 -0.152778  0.352115
			-0.904718 -0.214642  0.367987
			-0.839446 -0.268136  0.472688
			-0.842561  0.208551 -0.496585
			-0.999631 -0.024597  0.011530
			-0.730596 -0.293714  0.616410
			-0.864607 -0.310390  0.395111
			-0.983361 -0.012705  0.181219
			-0.914974 -0.173517 -0.364299
			-0.742979  0.022117 -0.668950
			-0.622800  0.131758 -0.771207
			-0.787502 -0.014777 -0.616135
			-0.866128 -0.491534  0.090639
			-0.886087 -0.449277 -0.114015
			-0.867819 -0.357196 -0.345399
			-0.786157 -0.601576  0.141649
			-0.775259 -0.519230  0.359686
			-0.908391 -0.186131  0.374407
			-0.887414 -0.127878  0.442881
			-0.683604 -0.143802  0.715546
			-0.740081 -0.219118  0.635820
			-0.418415  0.355008 -0.836001
			-0.478925  0.429071 -0.765852
			-0.819849  0.402600 -0.407137
			-0.970120  0.239520  0.038695
			-0.587160 -0.122110  0.800207
			-0.841390 -0.205453  0.499852
			-0.547391 -0.079797  0.833064
			-0.736730 -0.099505  0.668826
			-0.954635  0.006736  0.297703
			-0.867150  0.394062 -0.304577
			-0.979169  0.159818  0.125242
			-0.916989  0.223520 -0.330409
			-0.702741 -0.268790 -0.658716
			-0.822775 -0.067658 -0.564325
			-0.722468 -0.098707 -0.684322
			-0.803968 -0.062627 -0.591365
			-0.600780  0.143043 -0.786513
			-0.605781  0.061387 -0.793259
			-0.667054 -0.587736 -0.457828
			-0.590203 -0.789928 -0.166357
			-0.520260 -0.850534  0.076952
			-0.281977 -0.905180  0.318023
			-0.702213 -0.407012  0.584156
			-0.277146 -0.821682  0.498024
			-0.224043 -0.732989  0.642287
			-0.699411 -0.221249  0.679613
			-0.468458 -0.147781  0.871039
			-0.532780 -0.129680  0.836258
			-0.348436 -0.162655  0.923112
			-0.397735 -0.144179  0.906101
			-0.429633  0.219008 -0.876043
			-0.152125  0.514056 -0.844159
			-0.142806  0.585490 -0.798003
			-0.146915  0.574511 -0.805204
			-0.256230  0.400446 -0.879767
			-0.434984  0.545441 -0.716437
			-0.308667 -0.055569  0.949545
			-0.451372 -0.063312  0.890087
			-0.296724 -0.063351  0.952859
			-0.604558  0.050292  0.794972
			-0.525315  0.002722  0.850904
			-0.819845  0.070057  0.568283
			-0.964750  0.152864  0.214219
			-0.906869  0.149271  0.394091
			-0.427160  0.447571 -0.785630
			-0.790879  0.327382 -0.517041
			-0.944628  0.111228 -0.308716
			-0.985923  0.036186  0.163237
			-0.884816  0.111020  0.452522
			-0.888846  0.010959  0.458075
			-0.620151  0.165335 -0.766862
			-0.651044  0.302768 -0.696042
			-0.326128 -0.363314 -0.872722
			-0.421891 -0.124109 -0.898112
			-0.227634  0.110103 -0.967502
			-0.374052 -0.769211 -0.518073
			-0.304650 -0.594931 -0.743805
			-0.192722 -0.875617 -0.442891
			-0.359432 -0.927503 -0.102698
			-0.142319 -0.940707 -0.307920
			-0.218279 -0.967770  0.125602
			 0.028735 -0.892285  0.450557
			-0.120403 -0.839959  0.529124
			-0.280890 -0.511231  0.812246
			-0.038999 -0.757683  0.651457
			-0.371547 -0.249398  0.894289
			-0.263158 -0.183336  0.947173
			-0.168918 -0.122301  0.978013
			-0.160660 -0.163853  0.973314
			 0.005738  0.598394 -0.801181
			-0.077590  0.346355 -0.934889
			-0.221478  0.377753 -0.899028
			-0.064734  0.663720 -0.745174
			-0.182077  0.442866 -0.877906
			-0.060610 -0.026634  0.997806
			-0.207990 -0.144083  0.967461
			-0.162372 -0.178071  0.970529
			-0.441425 -0.062074  0.895148
			-0.475638 -0.022876  0.879344
			-0.010414 -0.093097  0.995603
			-0.141108 -0.104144  0.984501
			-0.075960 -0.127910  0.988873
			-0.734225  0.063752  0.675906
			-0.739996 -0.050790  0.670691
			-0.507516 -0.033007  0.861010
			-0.586441 -0.091104  0.804852
			-0.364653  0.318526 -0.874968
			-0.995175  0.037973 -0.090464
			-0.967987 -0.016875 -0.250431
			-0.711563  0.014459 -0.702473
			-0.698572  0.119976 -0.705410
			-0.973936 -0.102401  0.202393
			-0.864271 -0.056217  0.499875
			-0.443792  0.066972 -0.893624
			-0.251447  0.158944 -0.954731
			-0.339587  0.062225 -0.938514
			-0.102414 -0.500086 -0.859898
			-0.016622 -0.446116 -0.894821
			 0.017040 -0.332482 -0.942956
			-0.112860 -0.185231 -0.976193
			 0.034627 -0.077702 -0.996375
			 0.106283  0.032714 -0.993798
			-0.047107  0.188370 -0.980968
			-0.038996 -0.675646 -0.736194
			-0.010113 -0.729187 -0.684240
			-0.307072 -0.951404  0.023174
			-0.009215 -0.987345  0.158318
			 0.188847 -0.702856 -0.685806
			 0.156263 -0.931165 -0.329414
			 0.249523 -0.764223 -0.594728
			 0.247484 -0.927630  0.279740
			 0.222540 -0.776040  0.590117
			 0.336302 -0.876207  0.345199
			 0.128883 -0.647036  0.751488
			-0.075441 -0.389013  0.918138
			-0.011632 -0.244575  0.969561
			-0.020372  0.610903 -0.791443
			-0.088886  0.426408 -0.900153
			-0.043757  0.108222 -0.993163
			-0.022842  0.302488 -0.952879
			-0.004166  0.635742 -0.771891
			 0.025374  0.357681 -0.933499
			-0.049677 -0.160853  0.985727
			 0.032450 -0.125970  0.991503
			-0.440564 -0.082864  0.893889
			-0.187268 -0.085678  0.978565
			 0.284923 -0.311613  0.906486
			 0.251873 -0.215057  0.943563
			 0.080714 -0.080444  0.993486
			 0.058886 -0.125433  0.990353
			 0.085393 -0.136998  0.986884
			-0.645373 -0.094769  0.757966
			-0.775532 -0.060336  0.628418
			-0.486176 -0.099955  0.868125
			-0.491773 -0.109626  0.863795
			-0.989631 -0.122897 -0.074348
			-0.889151 -0.004314 -0.457594
			-0.622739  0.021174 -0.782143
			-0.454234 -0.009055 -0.890837
			-0.843687 -0.068834  0.532404
			-0.921960 -0.093659  0.375788
			-0.990727 -0.105522 -0.085588
			-0.728799 -0.064713  0.681663
			-0.261205  0.050897 -0.963941
			-0.337182  0.032703 -0.940871
			-0.389159  0.032612 -0.920593
			 0.137013 -0.468437 -0.872808
			 0.053762 -0.215341 -0.975058
			 0.199448 -0.252196 -0.946899
			 0.262443 -0.127956 -0.956426
			 0.200426  0.130558 -0.970971
			 0.369921 -0.929036 -0.007119
			 0.356305 -0.548074 -0.756744
			 0.392322 -0.808495 -0.438657
			 0.322081 -0.706254  0.630452
			 0.398565 -0.912303  0.094068
			 0.241924 -0.860546  0.448255
			 0.228982 -0.535908  0.812631
			-0.066814  0.633555 -0.770807
			 0.095582  0.190829 -0.976959
			 0.121139  0.119501 -0.985416
			 0.013340 -0.001497 -0.999910
			-0.122544  0.005822 -0.992446
			 0.128007  0.450065 -0.883773
			 0.169888  0.288478 -0.942294
			 0.003577  0.671061 -0.741393
			-0.075648  0.360902 -0.929531
			 0.095567 -0.154631  0.983339
			 0.224024 -0.107283  0.968661
			 0.127483 -0.096369  0.987148
			-0.034884 -0.068749  0.997024
			-0.316057 -0.077558  0.945565
			 0.315477 -0.524530  0.790786
			 0.102087 -0.389894  0.915184
			 0.091933 -0.156720  0.983355
			 0.041544 -0.091620  0.994927
			 0.117084 -0.097457  0.988329
			 0.228201 -0.122623  0.965861
			-0.596378 -0.048099  0.801261
			-0.523471 -0.069173  0.849231
			-0.514419 -0.067893  0.854847
			-0.361596 -0.055912  0.930657
			-0.813598 -0.009703 -0.581347
			-0.408546  0.019001 -0.912540
			-0.575712  0.049569 -0.816148
			-0.809368 -0.036651  0.586157
			-0.972917 -0.039058  0.227831
			-0.999120 -0.031897 -0.027225
			-0.862567 -0.039580 -0.504393
			-0.574850 -0.046482  0.816937
			-0.683285 -0.044177  0.728814
			-0.195334 -0.019376 -0.980545
			 0.304464 -0.341135 -0.889342
			 0.333770 -0.252329 -0.908255
			 0.091296  0.079461 -0.992649
			-0.040921 -0.099548 -0.994191
			 0.068790 -0.246986 -0.966574
			 0.437471 -0.860551 -0.260904
			 0.267126 -0.739849 -0.617468
			 0.206779 -0.543648 -0.813443
			 0.240936 -0.670848  0.701365
			 0.194820 -0.978041  0.074031
			 0.033785 -0.911759  0.409334
			-0.018499 -0.709569  0.704392
			 0.004182 -0.851855  0.523760
			-0.129317  0.637161 -0.759805
			 0.017576  0.696504 -0.717338
			 0.055700 -0.009640 -0.998401
			 0.070208  0.348873 -0.934537
			-0.059720  0.055848 -0.996652
			-0.071896 -0.013455 -0.997321
			-0.049838 -0.039507 -0.997976
			-0.074333 -0.037285 -0.996536
			-0.082871 -0.048274 -0.995390
			 0.046876  0.638036 -0.768578
			-0.249370  0.139650 -0.958286
			-0.370370  0.455815 -0.809357
			 0.235711 -0.093033  0.967360
			 0.427577 -0.084980  0.899976
			 0.492030 -0.096111  0.865257
			 0.368677 -0.074177  0.926593
			 0.182975 -0.084585  0.979472
			 0.084095 -0.080695  0.993185
			-0.224020 -0.042736  0.973647
			 0.029072 -0.053795  0.998129
			-0.088541 -0.044083  0.995097
			 0.066475 -0.527383  0.847023
			-0.049480 -0.234845  0.970773
			-0.089507 -0.430919  0.897941
			 0.056315 -0.048957  0.997212
			 0.338701 -0.043213  0.939901
			-0.519976 -0.037561  0.853354
			-0.480437 -0.035532  0.876309
			-0.386539 -0.047211  0.921064
			-0.287018 -0.032050 -0.957389
			-0.419301  0.004450 -0.907836
			-0.454009 -0.068765 -0.888340
			-0.545127 -0.097015 -0.832721
			-0.717185 -0.014046  0.696741
			-0.746189 -0.047856  0.664012
			-0.834624 -0.029732  0.550017
			-0.857402 -0.215032 -0.467572
			-0.963418 -0.159758  0.215181
			-0.471442 -0.044882  0.880754
			-0.409435 -0.047010  0.911127
			-0.459570 -0.043788  0.887062
			-0.528261 -0.037191  0.848267
			-0.092305 -0.028943 -0.995310
			-0.163630 -0.025614 -0.986189
			 0.223182 -0.336822 -0.914736
			-0.410924  0.020168 -0.911447
			-0.301843 -0.201101 -0.931906
			-0.176788 -0.444212 -0.878306
			-0.294936 -0.287887 -0.911117
			 0.291002 -0.851984 -0.435249
			 0.231669 -0.933707 -0.272986
			-0.049190 -0.720191 -0.692030
			 0.062501 -0.912181 -0.404993
			-0.040177 -0.991857 -0.120852
			 0.011526 -0.944547  0.328175
			-0.100715 -0.553500  0.826737
			 0.001995 -0.813482  0.581586
			 0.038378 -0.646551  0.761905
			-0.195091  0.632073 -0.749949
			-0.148902  0.363097 -0.919777
			-0.110601 -0.015789 -0.993739
			-0.234977  0.093306 -0.967512
			-0.045582 -0.039096 -0.998195
			-0.047662 -0.006398 -0.998843
			-0.029552 -0.035814 -0.998921
			-0.349982  0.004404 -0.936746
			-0.458914  0.247951 -0.853181
			-0.221354  0.754031 -0.618417
			-0.252674  0.614260 -0.747556
			-0.296694  0.426125 -0.854629
			 0.640351 -0.039866  0.767047
			 0.179887 -0.055445  0.982123
			 0.525279 -0.026668  0.850512
			 0.400514 -0.019249  0.916088
			-0.260919 -0.048001  0.964167
			 0.040648 -0.035592  0.998539
			-0.268240 -0.033987  0.962752
			-0.125136 -0.035186  0.991515
			 0.082347 -0.104208  0.991141
			 0.022690 -0.304012  0.952398
			-0.055349 -0.504801  0.861460
			 0.117224 -0.380437  0.917347
			 0.345716 -0.054876  0.936733
			 0.160458 -0.022784  0.986780
			 0.360903  0.023987  0.932295
			 0.567736  0.002385  0.823207
			-0.372335 -0.043669  0.927070
			-0.356973 -0.036805 -0.933389
			-0.277122 -0.044211 -0.959817
			-0.170104 -0.141580 -0.975202
			-0.408473 -0.242266 -0.880032
			-0.259280 -0.214674 -0.941642
			-0.912382 -0.041002  0.407282
			-0.672396 -0.037200  0.739256
			-0.761835 -0.025278  0.647278
			-0.822198 -0.065778  0.565388
			-0.962691 -0.051015  0.265751
			-0.956344 -0.288959 -0.043702
			-0.629313 -0.245791 -0.737260
			-0.971088 -0.142025 -0.191877
			-0.321842 -0.024980  0.946464
			-0.350692 -0.018409  0.936310
			-0.374396 -0.022531  0.926995
			-0.553621 -0.034179  0.832067
			 0.031888 -0.021076 -0.999269
			-0.058184 -0.030009 -0.997855
			-0.429111 -0.131925 -0.893566
			-0.346985 -0.202704 -0.915703
			-0.362433 -0.289126 -0.886030
			-0.318934 -0.540288 -0.778698
			-0.333468 -0.375627 -0.864698
			-0.360836 -0.322467 -0.875107
			-0.089886 -0.958060 -0.272105
			-0.273133 -0.773838 -0.571465
			-0.054829 -0.997554  0.043365
			 0.034567 -0.964831  0.260588
			 0.111628 -0.798135  0.592047
			 0.222160 -0.480787  0.848227
			 0.470226 -0.527093  0.707856
			-0.219903  0.517943 -0.826666
			-0.200517  0.050729 -0.978376
			-0.002091  0.040226 -0.999188
			-0.313413  0.268957 -0.910733
			 0.024871 -0.001460 -0.999690
			 0.058228  0.012408 -0.998226
			-0.036278 -0.014371 -0.999238
			 0.063428  0.001449 -0.997985
			-0.230548  0.215594 -0.948877
			-0.122093  0.035068 -0.991899
			-0.218564 -0.061146 -0.973905
			-0.143314  0.578103 -0.803279
			-0.301672  0.574732 -0.760708
			-0.225973  0.684224 -0.693378
			-0.137508  0.407748 -0.902681
			 0.703415  0.004980  0.710762
			 0.709509 -0.030441  0.704039
			 0.813763  0.036747  0.580034
			 0.802248 -0.031582  0.596155
			 0.275154 -0.030142  0.960928
			 0.645680 -0.018576  0.763382
			 0.501876 -0.005182  0.864924
			 0.127276 -0.037802  0.991147
			-0.167781 -0.015880  0.985696
			 0.061971 -0.017231  0.997929
			 0.403723 -0.166069  0.899683
			 0.465726 -0.265293  0.844227
			 0.347644 -0.000922  0.937626
			 0.583683 -0.078450  0.808183
			 0.650468 -0.013884  0.759406
			 0.675945  0.046959  0.735455
			 0.706208  0.028111  0.707446
			-0.164433 -0.074207 -0.983593
			-0.109224 -0.015215 -0.993901
			-0.238492 -0.021689 -0.970902
			-0.348378 -0.047843 -0.936132
			-0.351918 -0.055534 -0.934382
			-0.227979 -0.235745 -0.944696
			-0.160271 -0.159570 -0.974090
			-0.998205 -0.058839 -0.011178
			-0.995598 -0.079222  0.050079
			-0.969340 -0.017700  0.245087
			-0.886354 -0.009232  0.462917
			-0.838065 -0.012109  0.545436
			-0.725610 -0.050580  0.686245
			-0.487804 -0.189907 -0.852046
			-0.868265 -0.199738 -0.454116
			-0.152578 -0.019667  0.988096
			-0.257333 -0.020675  0.966102
			-0.434530 -0.025815  0.900287
			-0.278722 -0.025421  0.960035
			-0.739736 -0.032564  0.672109
			-0.652429 -0.018419  0.757626
			-0.542575 -0.033965  0.839320
			 0.123492 -0.016662 -0.992206
			 0.035711 -0.029081 -0.998939
			-0.235155 -0.290097 -0.927656
			-0.097689 -0.142219 -0.985003
			-0.321714 -0.595904 -0.735798
			-0.203770 -0.538550 -0.817583
			-0.038728 -0.442282 -0.896040
			 0.009755 -0.937307 -0.348369
			-0.018318 -0.997644 -0.066120
			-0.205186 -0.740542 -0.639919
			 0.324085 -0.945704  0.024773
			 0.113715 -0.926584  0.358486
			 0.228159 -0.783862  0.577498
			 0.534923 -0.372169  0.758517
			 0.577124 -0.560745  0.593711
			 0.707310 -0.224605  0.670273
			 0.854096 -0.151195  0.497655
			-0.176528  0.165244 -0.970326
			-0.112511  0.096721 -0.988932
			 0.014336  0.159031 -0.987170
			 0.232396  0.131847 -0.963643
			 0.195055  0.038154 -0.980050
			-0.217129  0.395371 -0.892489
			 0.196747  0.084558 -0.976801
			 0.287803  0.067142 -0.955333
			 0.244628  0.026213 -0.969263
			 0.246059  0.009884 -0.969204
			 0.185296  0.013674 -0.982588
			 0.051583  0.238066 -0.969878
			 0.084439  0.029027 -0.996006
			 0.031521  0.358919 -0.932836
			 0.061542  0.503221 -0.861963
			-0.126244  0.631380 -0.765128
			 0.765642 -0.012474  0.643146
			 0.900217  0.068598  0.430005
			 0.829660  0.063874  0.554603
			 0.799415 -0.020844  0.600417
			 0.872270 -0.033772  0.487857
			 0.946836  0.035010  0.319808
			 0.845055  0.004903  0.534658
			 0.454929  0.004658  0.890516
			 0.498723 -0.027206  0.866334
			 0.348278 -0.007293  0.937363
			 0.728490  0.008698  0.685001
			 0.665897  0.025902  0.745594
			 0.315045 -0.010134  0.949023
			 0.147791 -0.011820  0.988948
			 0.696395 -0.100792  0.710545
			 0.862211 -0.048061  0.504264
			 0.811345 -0.010368  0.584476
			 0.798323 -0.039014  0.600965
			 0.740893  0.032803  0.670821
			-0.111512 -0.039551 -0.992976
			 0.136848 -0.112018 -0.984238
			-0.094661 -0.011533 -0.995443
			-0.207252 -0.032423 -0.977750
			-0.338222 -0.054985 -0.939459
			-0.331346 -0.029676 -0.943043
			-0.728314 -0.165053 -0.665069
			-0.422780 -0.156636 -0.892593
			 0.007122 -0.118753 -0.992898
			-0.959263 -0.128311 -0.251697
			-0.927568 -0.081176 -0.364731
			-0.998385 -0.046058  0.033259
			-0.940056 -0.042101  0.338412
			-0.860684 -0.052997  0.506373
			-0.097995 -0.031794  0.994679
			-0.305012 -0.036386  0.951653
			-0.443919 -0.052339  0.894537
			-0.813159 -0.065541  0.578340
			-0.784186 -0.016934  0.620295
			-0.501195 -0.037483  0.864522
			-0.831386  0.000585  0.555694
			-0.520674 -0.009019  0.853708
			-0.589526 -0.004286  0.807738
			-0.672654 -0.022890  0.739603
			 0.257242  0.005173 -0.966333
			 0.129857 -0.026602 -0.991176
			 0.222306 -0.017490 -0.974820
			 0.002205 -0.053121 -0.998586
			 0.213961 -0.028478 -0.976427
			-0.069043 -0.010897 -0.997554
			-0.000153 -0.260614 -0.965443
			 0.231349 -0.138905 -0.962904
			 0.076591 -0.728094 -0.681185
			 0.154354 -0.392133 -0.906866
			 0.141222 -0.547363 -0.824894
			 0.361301 -0.582061 -0.728469
			 0.462545 -0.870384 -0.168771
			 0.395303 -0.830434 -0.392576
			 0.457338 -0.818723  0.347182
			 0.698758 -0.701833 -0.138447
			 0.650974 -0.756765  0.059493
			 0.767814 -0.545423  0.336118
			 0.868836 -0.053775  0.492171
			 0.925498 -0.187195  0.329259
			 0.952131 -0.030076  0.304206
			 0.945326  0.029330  0.324806
			 0.969456 -0.012748  0.244932
			 0.944715  0.055254  0.323205
			-0.021690  0.238079 -0.971004
			 0.165027  0.243030 -0.955878
			 0.354940  0.226875 -0.906943
			 0.452344  0.130164 -0.882294
			 0.567823  0.147105 -0.809899
			 0.701357  0.202870 -0.683331
			 0.339184  0.118686 -0.933203
			-0.055914  0.558327 -0.827735
			 0.110006  0.353719 -0.928860
			 0.391589  0.068527 -0.917585
			 0.393351 -0.026571 -0.919004
			 0.360225 -0.042452 -0.931899
			 0.314359  0.032755 -0.948739
			 0.407961  0.090142 -0.908539
			 0.420629  0.226765 -0.878435
			 0.278220  0.258096 -0.925192
			 0.491308  0.531754 -0.689822
			 0.400579  0.262026 -0.877997
			 0.128057  0.670735 -0.730559
			 0.912757  0.123388  0.389422
			 0.864579  0.027591  0.501738
			 0.905139  0.126358  0.405902
			 0.961700 -0.039939  0.271179
			 0.906889 -0.004838  0.421341
			 0.968708  0.120249  0.217127
			 0.991427  0.078244  0.104641
			 0.995763  0.033575  0.085612
			 0.998343  0.011249 -0.056432
			 0.831319 -0.013714  0.555626
			 0.982656 -0.061389  0.174979
			 0.895376 -0.012308  0.445141
			 0.947676 -0.004402  0.319203
			 0.648092  0.000461  0.761562
			 0.547238 -0.008327  0.836936
			 0.790766  0.032219  0.611271
			 0.755930  0.015693  0.654464
			 0.821836  0.027306  0.569070
			 0.395219 -0.006310  0.918565
			 0.466192  0.029015  0.884208
			 0.436821  0.004600  0.899537
			 0.102613 -0.019421  0.994532
			 0.334179  0.011958  0.942434
			 0.933859 -0.082303  0.348042
			 0.924541 -0.101777  0.367240
			-0.209229 -0.031872 -0.977347
			-0.289620  0.011336 -0.957074
			-0.103151 -0.031633 -0.994162
			 0.235151 -0.013672 -0.971863
			 0.152410 -0.073966 -0.985546
			-0.560583 -0.166932 -0.811098
			-0.875107 -0.067604 -0.479184
			-0.131718 -0.132385 -0.982408
			-0.531127 -0.132827 -0.836816
			-0.762436 -0.090312 -0.640730
			-0.915467 -0.094798 -0.391066
			-0.993977 -0.059151 -0.092258
			-0.942139 -0.051285  0.331277
			-0.966227 -0.034112  0.255424
			-0.897227 -0.031260  0.440462
			-0.185905 -0.022535  0.982309
			 0.117623 -0.014101  0.992958
			 0.038683 -0.010650  0.999195
			-0.369778 -0.034607  0.928475
			-0.437478  0.001632  0.899228
			-0.946106  0.014076  0.323551
			-0.753822 -0.032537  0.656273
			-0.822964 -0.025904  0.567502
			-0.912099  0.006287  0.409921
			-0.386632 -0.011794  0.922159
			-0.461006 -0.010562  0.887334
			-0.500922 -0.017085  0.865324
			-0.559056 -0.013750  0.829016
			-0.683390 -0.014498  0.729910
			 0.244883 -0.141417 -0.959184
			 0.250789 -0.003904 -0.968034
			 0.072382 -0.079199 -0.994228
			 0.097957 -0.014885 -0.995079
			 0.129335 -0.049810 -0.990349
			-0.028049 -0.050138 -0.998348
			 0.266683 -0.017207 -0.963631
			 0.099210 -0.012869 -0.994983
			 0.280253 -0.057003 -0.958232
			 0.227524 -0.056128 -0.972154
			 0.337586 -0.246358 -0.908484
			 0.641221 -0.069037 -0.764245
			 0.553558 -0.714160 -0.428425
			 0.512203 -0.427600 -0.744853
			 0.805422 -0.498216 -0.321054
			 0.896807 -0.441361 -0.030606
			 0.852454 -0.510905  0.110897
			 0.949700 -0.246474  0.193183
			 0.963555  0.072911  0.257384
			 0.964532 -0.229526  0.130369
			 0.938151  0.035596  0.344393
			 0.428009  0.362964 -0.827687
			 0.766076  0.140490 -0.627208
			 0.529546  0.049036 -0.846863
			 0.895485 -0.054882 -0.441696
			 0.898447  0.109372 -0.425242
			 0.979325  0.170039 -0.109587
			 0.877828  0.298535 -0.374559
			 0.261483  0.637881 -0.724386
			 0.559663  0.488481 -0.669450
			 0.256130  0.268872 -0.928496
			 0.701371 -0.073032 -0.709046
			 0.465479 -0.051695 -0.883548
			 0.450967 -0.164143 -0.877318
			 0.731651  0.135738 -0.668028
			 0.652662  0.645322 -0.396980
			 0.744759  0.245115 -0.620687
			 0.921443  0.385985 -0.044252
			 0.960800  0.174485 -0.215448
			 0.948299  0.185753  0.257341
			 0.950449  0.045488  0.307534
			 0.967640 -0.145584  0.206104
			 0.973318  0.185837  0.134601
			 0.997145  0.057665 -0.048742
			 0.890978 -0.012465  0.453876
			 0.847732  0.006506  0.530385
			 0.983896 -0.165852 -0.066644
			 0.963939 -0.123479 -0.235742
			 0.988526  0.055995  0.140288
			 0.993860 -0.029180  0.106725
			 0.908808 -0.025269 -0.416449
			 0.996970 -0.018618 -0.075529
			 0.735797  0.012779  0.677082
			 0.691913  0.017295  0.721773
			 0.564836  0.028865  0.824698
			 0.832463  0.017584  0.553801
			 0.865651  0.041335  0.498939
			 0.884289  0.020009  0.466512
			 0.609208  0.028940  0.792482
			 0.575487  0.017079  0.817633
			 0.482141  0.013932  0.875983
			 0.266720  0.006804  0.963750
			 0.941592 -0.039583  0.334420
			 0.955064 -0.136051  0.263329
			 0.954612 -0.127477  0.269195
			 0.965351 -0.108559  0.237304
			-0.204668 -0.016983 -0.978684
			-0.253464 -0.071442 -0.964703
			-0.004371 -0.074122 -0.997240
			 0.217404 -0.059166 -0.974287
			 0.106763 -0.055371 -0.992742
			 0.115361 -0.065585 -0.991156
			-0.070912 -0.197150 -0.977805
			-0.388398 -0.104230 -0.915578
			-0.410664 -0.073621 -0.908810
			-0.796185 -0.092790 -0.597895
			-0.938022 -0.076225 -0.338089
			-0.998514 -0.043645  0.032636
			-0.307187 -0.030936  0.951146
			 0.169365 -0.010757  0.985495
			 0.016000 -0.012947  0.999788
			-0.957627  0.005982  0.287949
			-0.830894 -0.039028  0.555060
			-0.942490 -0.036627  0.332222
			-0.918327 -0.013615  0.395589
			-0.366507 -0.013786  0.930313
			-0.411863 -0.002283  0.911243
			-0.487647 -0.014757  0.872916
			-0.806350 -0.001701  0.591436
			-0.646373 -0.011621  0.762933
			 0.293148 -0.185107 -0.937976
			 0.024085 -0.083608 -0.996208
			-0.067985 -0.055753 -0.996127
			 0.020224 -0.044896 -0.998787
			 0.006548 -0.045677 -0.998935
			 0.146372 -0.060107 -0.987402
			 0.261696 -0.062771 -0.963107
			-0.089375 -0.043448 -0.995050
			-0.093390  0.023617 -0.995350
			-0.070327 -0.028380 -0.997120
			-0.016530 -0.031382 -0.999371
			 0.307358 -0.077657 -0.948420
			 0.726526 -0.297391 -0.619451
			 0.892920  0.031245 -0.449129
			 0.925287 -0.043005 -0.376822
			 0.965073 -0.261668  0.012766
			 0.894898  0.066890  0.441229
			 0.916940 -0.014064  0.398777
			 0.815765  0.356816 -0.455203
			 0.972080  0.234094 -0.016142
			 0.798459  0.440305 -0.410603
			 0.908743  0.381804 -0.168558
			 0.949991  0.300378 -0.085382
			 0.830491  0.004109 -0.557017
			 0.775455 -0.177257 -0.606012
			 0.992944  0.086027 -0.081623
			 0.984161  0.134497  0.115491
			 0.979308  0.051545  0.195703
			 0.963838  0.189932  0.186930
			 0.985075  0.093332  0.144627
			 0.968395 -0.227164 -0.102991
			 0.945124 -0.018211  0.326203
			 0.722348  0.018481  0.691283
			 0.924527  0.035933  0.379419
			 0.913857  0.044781  0.403560
			 0.779254  0.015360  0.626520
			 0.915511  0.028580  0.401276
			 0.846223  0.040094  0.531319
			 0.885727  0.039347  0.462537
			 0.659771  0.021229  0.751167
			 0.614866  0.027679  0.788146
			 0.396365  0.010905  0.918028
			 0.928149  0.070453  0.365480
			 0.954069 -0.050220  0.295349
			 0.997337  0.026032  0.068133
			-0.142882 -0.077691 -0.986686
			-0.243576 -0.104102 -0.964279
			-0.231627 -0.124880 -0.964756
			-0.069479 -0.075348 -0.994734
			 0.109016 -0.026187 -0.993695
			 0.173618  0.004550 -0.984803
			 0.176076 -0.047577 -0.983226
			-0.674883 -0.035931 -0.737050
			-0.257064  0.007542 -0.966365
			-0.831518 -0.098136 -0.546760
			-0.992218 -0.052095 -0.113092
			-0.989681 -0.048876  0.134695
			-0.192552 -0.022594  0.981027
			 0.186951 -0.001537  0.982368
			-0.909297 -0.009254  0.416044
			-0.990977 -0.078765  0.108447
			-0.909909 -0.040282  0.412847
			-0.959777 -0.057093  0.274899
			-0.332505 -0.011898  0.943026
			-0.558708  0.001140  0.829364
			-0.368023 -0.019732  0.929607
			-0.363705 -0.030455  0.931016
			-0.779182 -0.024385  0.626324
			-0.892355 -0.016640  0.451027
			-0.649626  0.007168  0.760220
			 0.724386 -0.117845 -0.679248
			 0.437932 -0.139548 -0.888111
			 0.320620 -0.072236 -0.944450
			 0.056607 -0.083983 -0.994858
			 0.287417 -0.080012 -0.954457
			 0.190360 -0.097669 -0.976844
			-0.061032  0.001228 -0.998135
			 0.137740 -0.006435 -0.990448
			 0.315196 -0.024245 -0.948717
			 0.053657 -0.070601 -0.996061
			 0.198347 -0.103478 -0.974654
			-0.024250 -0.018513 -0.999534
			 0.304546 -0.070800 -0.949863
			 0.940511 -0.228914 -0.251071
			 0.997726  0.066998 -0.007359
			 0.989185 -0.002072  0.146659
			 0.995834 -0.059938 -0.068720
			 0.741758  0.029279  0.670028
			 0.991702  0.061409  0.112945
			 0.965873  0.050871  0.253970
			 0.990467  0.043713  0.130632
			 0.954791  0.028737  0.295887
			 0.934448  0.042403  0.353567
			 0.849322  0.037470  0.526543
			 0.624643  0.014068  0.780783
			 0.549923  0.021934  0.834927
			 0.452008  0.031586  0.891455
			-0.207920 -0.141169 -0.967905
			-0.127864 -0.161047 -0.978629
			-0.007784 -0.162888 -0.986614
			-0.223204 -0.145468 -0.963856
			-0.222652 -0.164867 -0.960856
			-0.036734 -0.090875 -0.995185
			 0.054910 -0.019287 -0.998305
			-0.366548 -0.070002 -0.927762
			-0.934190 -0.082278 -0.347160
			-0.598076 -0.104316 -0.794621
			 0.014927 -0.024051  0.999599
			-0.133770  0.003039  0.991008
			 0.155022  0.001894  0.987909
			 0.363158  0.012808  0.931640
			-0.985156 -0.037837 -0.167440
			-0.933760 -0.075395 -0.349869
			-0.908406 -0.041182  0.416055
			-0.939902 -0.064081  0.335376
			-0.991769 -0.079647  0.100252
			-0.423370  0.019406  0.905749
			-0.663787 -0.005353  0.747903
			-0.582323 -0.002695  0.812953
			-0.665643 -0.026688  0.745793
			-0.547134  0.030768  0.836479
			-0.180105  0.029381  0.983208
			-0.880859 -0.034478  0.472121
			-0.833280 -0.097564  0.544174
			-0.887248 -0.067579  0.456316
			-0.745815 -0.049669  0.664298
			-0.912570 -0.038830  0.407073
			 0.688007 -0.031501 -0.725020
			 0.918289  0.029666 -0.394798
			 0.663124  0.002263 -0.748506
			 0.045816 -0.149660 -0.987676
			 0.196934 -0.161296 -0.967058
			 0.317992 -0.117218 -0.940819
			 0.282147 -0.001266 -0.959370
			 0.524397  0.020132 -0.851236
			 0.252998 -0.037190 -0.966752
			 0.158233 -0.191950 -0.968565
			 0.323510 -0.137389 -0.936197
			 0.437466 -0.033526 -0.898610
			 0.718293  0.024430  0.695312
			 0.834168  0.051247  0.549125
			 0.979575  0.040218 -0.197018
			 0.868652  0.037089 -0.494032
			 0.995040  0.048905  0.086618
			 0.864535 -0.032295 -0.501534
			 0.999388  0.021161 -0.027841
			 0.976402  0.054502  0.208970
			 0.974613  0.050410  0.218148
			 0.939865  0.036586  0.339580
			 0.977400  0.029833  0.209283
			 0.664397  0.032538  0.746671
			 0.623569  0.026054  0.781334
			 0.602956  0.016036  0.797613
			-0.187192 -0.166039 -0.968189
			-0.138439 -0.211322 -0.967563
			-0.087310 -0.180919 -0.979615
			 0.054361 -0.190829 -0.980117
			 0.025962 -0.220467 -0.975049
			-0.172428 -0.185787 -0.967343
			-0.143706 -0.089453 -0.985569
			-0.010389  0.022849 -0.999685
			-0.464433 -0.075673 -0.882369
			-0.153839 -0.192769 -0.969110
			-0.505671 -0.100067 -0.856903
			 0.078635  0.009119  0.996862
			 0.172715  0.006991  0.984947
			 0.531261  0.018568  0.847005
			-0.986986 -0.140864 -0.077556
			-0.777203 -0.135371 -0.614516
			-0.859761  0.018758 -0.510351
			-0.935634 -0.140262  0.323908
			-0.468176  0.013802  0.883528
			-0.320609  0.007313  0.947183
			-0.674907 -0.058927  0.735546
			-0.577291 -0.047234  0.815171
			-0.755376 -0.061435  0.652406
			-0.046622  0.018708  0.998737
			-0.220285  0.036617  0.974748
			-0.802107 -0.107928  0.587346
			 0.775504  0.020860 -0.630998
			 0.053759 -0.183182 -0.981608
			 0.226628 -0.168948 -0.959217
			 0.309802 -0.139271 -0.940546
			 0.683372 -0.011325 -0.729982
			 0.699074 -0.037599 -0.714060
			 0.667198 -0.116796 -0.735667
			 0.633572 -0.036096 -0.772841
			 0.739087  0.036522  0.672619
			 0.796055  0.055632  0.602662
			 0.957413  0.029010  0.287260
			 0.914523  0.017287  0.404164
			 0.873678  0.046224 -0.484304
			 0.864182  0.024261 -0.502595
			 0.925608 -0.036289 -0.376740
			 0.999953  0.006940 -0.006711