<?xml version="1.0"?>
<VTKFile type="PolyData" version="0.1" byte_order="LittleEndian" compressor="vtkZLibDataCompressor">
	<PolyData>
		<Piece NumberOfPoints="444" NumberOfVerts="0" NumberOfLines="0" NumberOfStrips="0" NumberOfPolys="906">
		<PointData Normals="Normals">
		<DataArray type="Float32" Name="Normals" NumberOfComponents="3" format="ascii">
			-0.005261 -0.651650 -0.758502
			 0.189012 -0.873038 -0.449532
			-0.087723 -0.972429 -0.216069
			 0.196535 -0.576667 -0.792988
			-0.361583 -0.824287 -0.435670
			-0.313784 -0.648903 -0.693155
			-0.055665 -0.400515 -0.914598
			 0.079021 -0.340958 -0.936751
			 0.047989 -0.378996 -0.924153
			 0.465849 -0.764878 -0.444912
			 0.368725 -0.929293  0.021350
			-0.422716 -0.892359  0.158135
			-0.034505 -0.928964  0.368559
			 0.454011 -0.407573 -0.792312
			 0.528747 -0.683567 -0.503153
			-0.578134 -0.813801 -0.059068
			-0.364154 -0.414685 -0.833924
			-0.466712 -0.429006 -0.773391
			-0.204086 -0.339629 -0.918151
			-0.581009 -0.630589 -0.514574
			 0.014412 -0.197921 -0.980112
			 0.155315 -0.207980 -0.965723
			 0.523888 -0.822346  0.222010
			 0.262834 -0.760246  0.594092
			-0.120447 -0.566841  0.814975
			-0.340711 -0.681998  0.647144
			 0.159174 -0.091615 -0.982990
			 0.350328 -0.266970 -0.897774
			 0.715057 -0.687365 -0.127372
			 0.810943 -0.434721 -0.391649
			 0.531231 -0.234477 -0.814134
			-0.546778 -0.593618  0.590468
			-0.838589 -0.535198 -0.101645
			-0.400822 -0.244292 -0.882985
			-0.204520 -0.185335 -0.961157
			-0.719313 -0.449536 -0.529628
			-0.735768 -0.494101 -0.463152
			-0.001153 -0.003755 -0.999992
			 0.561401 -0.517705  0.645609
			 0.202751 -0.492403  0.846423
			-0.085410 -0.344785  0.934788
			-0.007425 -0.138897  0.990279
			-0.062920 -0.236464  0.969601
			-0.214916 -0.371365  0.903271
			 0.411684 -0.001227 -0.911326
			 0.161870  0.011542 -0.986745
			 0.032080  0.111089 -0.993293
			-0.054691  0.153607 -0.986617
			 0.865717 -0.486476  0.117797
			 0.721817 -0.229116 -0.653059
			 0.947049 -0.211065 -0.241969
			 0.835393 -0.309099  0.454506
			 0.959363 -0.282033 -0.008956
			-0.638977 -0.431352  0.636903
			-0.139849 -0.227665  0.963645
			-0.901857 -0.405808 -0.148236
			-0.920950 -0.387920  0.036998
			-0.818021 -0.424883 -0.387706
			-0.177842  0.038291 -0.983314
			-0.396045 -0.003787 -0.918223
			-0.654551 -0.200521 -0.728940
			 0.012797  0.151204 -0.988420
			 0.177354 -0.186761  0.966264
			 0.443598 -0.172533  0.879462
			 0.025377 -0.136285  0.990345
			 0.240947 -0.112733  0.963969
			 0.158364  0.104261  0.981861
			 0.153981  0.103692 -0.982618
			 0.226318  0.388987 -0.893011
			 0.709522 -0.149523 -0.688638
			 0.673623  0.134836 -0.726672
			 0.894872 -0.054620 -0.442969
			 0.013072  0.282877 -0.959067
			-0.088132  0.242602 -0.966114
			-0.116089  0.419979 -0.900078
			 0.965252 -0.124234 -0.229902
			 0.900707 -0.089103  0.425192
			 0.983215 -0.053029  0.174573
			 0.420422  0.077362  0.904025
			-0.388514 -0.117747  0.913889
			-0.793680 -0.248787  0.555136
			-0.129006 -0.083070  0.988158
			-0.317432  0.080253  0.944879
			-0.947957 -0.318382 -0.003255
			-0.954096 -0.164410  0.250341
			-0.950637 -0.138002  0.277928
			-0.919916 -0.109479 -0.376522
			-0.320349  0.189406 -0.928171
			-0.067204  0.255733 -0.964409
			-0.534831  0.046457 -0.843681
			-0.022365 -0.167769  0.985572
			-0.053791 -0.177949  0.982568
			 0.279984 -0.171241  0.944608
			 0.502531  0.005640  0.864541
			 0.505848 -0.117775  0.854545
			 0.565269  0.166581  0.807912
			 0.011791  0.548685 -0.835946
			 0.525679  0.351582 -0.774630
			 0.165341  0.405156 -0.899172
			 0.981081  0.128244 -0.145033
			 0.999598  0.026348 -0.010468
			 0.941529  0.004634  0.336901
			 0.088716  0.358741 -0.929212
			-0.030222  0.223637 -0.974204
			 0.154829  0.204246 -0.966598
			 0.027681  0.104775 -0.994111
			-0.635245 -0.023006  0.771968
			-0.219207 -0.140864  0.965456
			-0.391298 -0.049263  0.918945
			-0.735267  0.040843  0.676546
			-0.687360  0.181911  0.703167
			-0.698964  0.049532  0.713439
			-0.955825  0.003979  0.293908
			-0.844361  0.083455  0.529235
			-0.543156  0.233069 -0.806635
			-0.936942  0.125187 -0.326295
			-0.196542  0.434033 -0.879196
			-0.069677  0.383896 -0.920744
			 0.286878 -0.186013  0.939734
			-0.003425 -0.143333  0.989669
			-0.281346 -0.158497  0.946426
			-0.151695 -0.133608  0.979356
			-0.214242 -0.146748  0.965694
			 0.614524 -0.122420  0.779342
			 0.543433 -0.187236  0.818305
			 0.605416  0.006352  0.795884
			 0.835847  0.505073 -0.215083
			 0.433871  0.373812 -0.819769
			 0.801445  0.044999  0.596373
			 0.873206  0.121997  0.471835
			-0.299938  0.161625 -0.940168
			-0.225113  0.066208 -0.972081
			-0.064832  0.053520 -0.996460
			 0.393986  0.162249 -0.904682
			 0.123161  0.081125 -0.989065
			-0.615670 -0.115978  0.779423
			-0.917950  0.228889  0.324003
			-0.847218  0.358731  0.391833
			-0.843744 -0.010302  0.536648
			-0.584585 -0.131118  0.800667
			-0.874123  0.418259 -0.246917
			-0.569632  0.644686 -0.509804
			-0.309198  0.517319 -0.797983
			 0.209655 -0.152049  0.965881
			 0.463539 -0.177886  0.868037
			 0.161140 -0.127179  0.978703
			-0.436529 -0.153458  0.886506
			-0.212149 -0.123481  0.969405
			-0.067498 -0.138321  0.988085
			 0.703863 -0.113450  0.701218
			 0.778629  0.063426  0.624271
			 0.863344  0.402435 -0.304438
			 0.909641  0.125095  0.396112
			 0.816326  0.166423 -0.553096
			-0.461118  0.067511 -0.884767
			-0.679133  0.185068 -0.710302
			-0.285073 -0.011683 -0.958434
			-0.478985 -0.015988 -0.877678
			-0.096161 -0.012387 -0.995289
			 0.517006  0.023072 -0.855671
			 0.182340  0.041579 -0.982356
			 0.549716 -0.093189 -0.830138
			-0.958311  0.144591  0.246443
			-0.758119  0.534416 -0.373706
			-0.877519 -0.124182  0.463185
			 0.411708 -0.151697  0.898602
			 0.214854 -0.138564  0.966767
			-0.314916 -0.153611  0.936606
			-0.670369 -0.170286  0.722224
			-0.104259 -0.160302  0.981546
			 0.039019 -0.137639  0.989714
			 0.868884 -0.046836  0.492796
			 0.768409 -0.107283  0.630903
			 0.498432 -0.140574  0.855456
			 0.972900  0.021769 -0.230200
			 0.992850  0.088897  0.079661
			 0.929072 -0.065503  0.364054
			 0.857127 -0.048912 -0.512778
			-0.711943 -0.020079 -0.701950
			-0.932038  0.011063 -0.362191
			-0.730765  0.271510 -0.626311
			-0.327379 -0.070256 -0.942277
			-0.480475 -0.102956 -0.870944
			-0.819689 -0.194024 -0.538947
			-0.120122 -0.061490 -0.990853
			 0.154716 -0.062543 -0.985977
			 0.596413 -0.174717 -0.783432
			 0.275963 -0.067707 -0.958781
			 0.815905 -0.245049 -0.523689
			-0.977682  0.114944 -0.175859
			-0.971493 -0.117687  0.205792
			 0.039296 -0.153214  0.987411
			 0.183814 -0.143557  0.972422
			 0.464399 -0.116346  0.877951
			-0.522913 -0.164531  0.836356
			-0.173907 -0.213340  0.961375
			-0.738963 -0.165108  0.653202
			 0.762081 -0.129900  0.634317
			 0.997839 -0.004260  0.065560
			 0.978370 -0.161891 -0.128775
			 0.989818 -0.114257  0.084883
			 0.868314 -0.226796  0.441129
			 0.951441 -0.288939 -0.106181
			-0.267997 -0.027811 -0.963018
			-0.508280 -0.139782 -0.849772
			-0.546531 -0.139859 -0.825678
			-0.820570 -0.276843 -0.500023
			-0.964550 -0.255889  0.064524
			-0.947964 -0.304184 -0.094005
			-0.029628  0.014355 -0.999458
			 0.063315 -0.035456 -0.997364
			 0.598978 -0.216852 -0.770844
			 0.170241 -0.002210 -0.985400
			 0.356518 -0.067690 -0.931833
			 0.876965 -0.382686 -0.290662
			-0.802053 -0.174141  0.571302
			 0.189037 -0.168621  0.967384
			 0.579629 -0.199352  0.790120
			-0.592554 -0.238850  0.769305
			 0.100515 -0.256636  0.961267
			-0.101501 -0.252727  0.962199
			-0.309427 -0.291732  0.905068
			 0.958316 -0.272308  0.086477
			 0.911883 -0.370325  0.176998
			 0.693087 -0.405008  0.596322
			 0.659362 -0.278845  0.698203
			-0.370837 -0.028202 -0.928270
			-0.156494  0.037723 -0.986958
			-0.718792 -0.215091 -0.661116
			-0.882251 -0.219689  0.416378
			-0.927753 -0.367545 -0.064699
			-0.846982 -0.310446  0.431560
			-0.059557  0.054949 -0.996711
			 0.054380  0.037893 -0.997801
			 0.451307 -0.072690 -0.889403
			 0.759847 -0.233208 -0.606833
			 0.262169  0.007690 -0.964991
			 0.084071  0.069742 -0.994016
			 0.815487 -0.517177 -0.259826
			 0.356043 -0.259700  0.897658
			 0.515818 -0.265894  0.814390
			-0.296652 -0.320063  0.899754
			-0.506013 -0.321888  0.800212
			-0.688402 -0.321908  0.649984
			 0.041230 -0.324363  0.945034
			 0.306008 -0.359194  0.881668
			-0.118218 -0.309070  0.943663
			 0.840268 -0.446015  0.308253
			 0.520896 -0.410207  0.748597
			 0.731821 -0.633862  0.250313
			 0.577238 -0.671692  0.464356
			 0.487731 -0.560591  0.669221
			-0.302797 -0.054765 -0.951480
			-0.145235  0.010211 -0.989344
			-0.199743  0.019791 -0.979648
			-0.823237 -0.341738 -0.453317
			-0.505982 -0.140405 -0.851040
			-0.862026 -0.460738  0.211262
			-0.773868 -0.621010 -0.124398
			-0.138581  0.152434 -0.978549
			-0.024664  0.104820 -0.994185
			 0.339370  0.023874 -0.940350
			 0.548539 -0.096716 -0.830512
			 0.179799  0.076788 -0.980702
			-0.025410  0.202771 -0.978896
			 0.788427 -0.600143 -0.134950
			 0.662745 -0.343708 -0.665307
			-0.105706 -0.290386  0.951053
			-0.225405 -0.458849  0.859448
			-0.437910 -0.457210  0.774076
			-0.532623 -0.482030  0.695672
			-0.708215 -0.549847  0.442832
			-0.003409 -0.262840  0.964834
			 0.185604 -0.435364  0.880914
			 0.346945 -0.536647  0.769181
			 0.438974 -0.632068  0.638586
			 0.707372 -0.615453  0.347624
			 0.446167 -0.521858  0.727049
			-0.415888 -0.060813 -0.907380
			-0.346562  0.087449 -0.933942
			-0.601388 -0.275708 -0.749878
			-0.563719 -0.687960  0.457091
			-0.731916 -0.678919  0.058034
			-0.673963 -0.474871 -0.565925
			-0.092645  0.315546 -0.944377
			-0.166131  0.380900 -0.909569
			 0.323147  0.030483 -0.945858
			 0.639182  0.096558 -0.762970
			 0.722243 -0.121240 -0.680930
			 0.358297  0.086843 -0.929560
			 0.128371  0.265620 -0.955493
			 0.249808  0.316830 -0.914995
			-0.093771  0.355142 -0.930097
			 0.005104  0.441357 -0.897317
			 0.894415 -0.323014 -0.309328
			-0.068496 -0.504436  0.860728
			 0.016833 -0.366842  0.930131
			-0.317749 -0.636562  0.702726
			-0.199053 -0.575990  0.792851
			-0.363432 -0.632454  0.684046
			-0.392327 -0.682976  0.616136
			 0.232655 -0.560679  0.794677
			 0.334889 -0.483285  0.808879
			 0.595691 -0.462620  0.656609
			 0.592167 -0.394925  0.702404
			 0.582382 -0.324558  0.745314
			 0.986866 -0.157573  0.035577
			 0.919620 -0.128215  0.371295
			-0.462872 -0.096810 -0.881123
			-0.508479 -0.083118 -0.857053
			-0.435252  0.115119 -0.892919
			-0.319841  0.357995 -0.877235
			-0.488032 -0.747453  0.450710
			-0.809278 -0.584907 -0.054343
			-0.724627 -0.264999 -0.636154
			-0.130922  0.434559 -0.891077
			-0.200573  0.480722 -0.853626
			-0.183393  0.467682 -0.864662
			 0.874976  0.030223 -0.483221
			 0.921847  0.219397 -0.319473
			 0.636877  0.384651 -0.668156
			 0.452954  0.313502 -0.834595
			 0.133762  0.526008 -0.839895
			 0.314897  0.447790 -0.836854
			-0.125890  0.452216 -0.882979
			-0.093156 -0.563057  0.821151
			 0.069022 -0.569778  0.818895
			-0.273054 -0.634946  0.722693
			-0.330040 -0.618492  0.713121
			-0.090267 -0.430910  0.897869
			-0.283707 -0.397636  0.872580
			-0.430510 -0.652282  0.623850
			 0.168161 -0.573207  0.801970
			 0.524691 -0.146336  0.838621
			 0.194829 -0.478886  0.855985
			 0.400854 -0.191499  0.895904
			 0.779581  0.059963  0.623425
			 0.750679  0.051029  0.658693
			 0.964104  0.262306  0.041219
			 0.872088  0.332698  0.358851
			-0.510361  0.127064 -0.850521
			-0.677732 -0.071638 -0.731811
			-0.417956  0.336968 -0.843661
			-0.425079  0.559991 -0.711139
			-0.368231  0.550332 -0.749360
			-0.332638  0.647378 -0.685751
			-0.722583 -0.596640  0.349135
			-0.857432 -0.199321 -0.474428
			-0.970882 -0.236785  0.036334
			-0.236198  0.596705 -0.766912
			-0.179292  0.560592 -0.808450
			 0.778724  0.482891 -0.400508
			 0.765865  0.641049 -0.050069
			 0.593250  0.659808 -0.461203
			 0.434659  0.614626 -0.658260
			 0.117021  0.589617 -0.799161
			 0.365502  0.834729 -0.411868
			-0.049338  0.485600 -0.872788
			-0.035210 -0.508261  0.860483
			 0.027518 -0.501962  0.864452
			-0.543446 -0.379088  0.748972
			-0.382423 -0.476308  0.791760
			-0.583973 -0.349758  0.732560
			 0.083734 -0.331528  0.939722
			-0.211281 -0.086987  0.973547
			-0.023694 -0.133613  0.990750
			-0.488047  0.116850  0.864960
			-0.557769  0.076488  0.826464
			-0.771629 -0.344399  0.534769
			 0.651457  0.255662  0.714311
			 0.517704  0.388039  0.762502
			 0.288787 -0.102548  0.951886
			 0.508986  0.367042  0.778597
			 0.744771  0.580304  0.329489
			 0.605020  0.658164  0.448074
			 0.739736  0.507239  0.442152
			-0.706644  0.115098 -0.698145
			-0.590092  0.381932 -0.711280
			-0.520115  0.807343 -0.278707
			-0.551629  0.779858 -0.295849
			-0.566348  0.648447 -0.508691
			-0.299165  0.934105 -0.194803
			-0.424632  0.901014  0.088663
			-0.918978  0.147652 -0.365622
			-0.952812  0.108593  0.283471
			-0.227998  0.921516 -0.314365
			 0.049224  0.795872 -0.603461
			 0.525125  0.818222 -0.234000
			 0.410277  0.886532  0.213853
			 0.493123  0.819727 -0.291338
			 0.208754  0.843746 -0.494485
			 0.391051  0.906523  0.159045
			 0.315346  0.937909  0.144511
			 0.274518  0.839023  0.469766
			-0.579569 -0.185945  0.793425
			-0.746334  0.103754  0.657435
			-0.785291  0.154563  0.599524
			 0.183999 -0.001470  0.982925
			-0.131023  0.144709  0.980761
			-0.416556  0.487638  0.767261
			 0.108651  0.184074  0.976889
			-0.024778  0.131587  0.990995
			-0.579265  0.737568  0.347054
			-0.679843  0.259934  0.685747
			-0.609342  0.641159  0.466495
			 0.354562  0.899644  0.254806
			 0.433673  0.482364  0.761086
			 0.395326  0.909903  0.125676
			 0.461105  0.850759  0.252172
			 0.168401  0.965244  0.199863
			-0.859758  0.462793 -0.215961
			-0.459015  0.873346  0.163007
			-0.295785  0.889840  0.347413
			-0.647613  0.761140 -0.035528
			-0.088680  0.811803  0.577159
			-0.808966  0.327676  0.488060
			-0.837792  0.490384  0.240058
			-0.009703  0.919023  0.394084
			 0.254497  0.948384  0.189207
			 0.421157  0.892764  0.159994
			 0.229626  0.866124  0.443960
			 0.098639  0.770290  0.630018
			 0.125614  0.873009  0.471250
			-0.771006  0.477219  0.421677
			-0.535375  0.781579  0.320169
			-0.677493  0.604967  0.418351
			-0.088787  0.751089  0.654204
			-0.331565  0.941217 -0.064618
			-0.185079  0.975081  0.122319
			 0.263628  0.848188  0.459432
			-0.340075  0.926219 -0.162691
			-0.290882  0.949313  0.119134
			-0.106708  0.991944  0.068266
			-0.227502  0.953621  0.197103
			 0.111018  0.987195  0.114548
			 0.305476  0.936626  0.171515
			 0.041893  0.968649 -0.244874
			-0.093370  0.899472  0.426887
			 0.053883  0.689186  0.722578
			-0.070644  0.924492  0.374598
			 0.029860  0.952103  0.304315
			 0.104019  0.896534  0.430589
			 0.006110  0.967707 -0.252003
			-0.042913  0.995325 -0.086520
		</DataArray>
	</PointData>
	<Points>
		<DataArray type="Float32" NumberOfComponents="3" format="ascii">
			 0.000766 -0.017945 -0.003853
			 0.001052 -0.018178 -0.003487
			 0.000591 -0.018288 -0.003267
			 0.001215 -0.017626 -0.004041
			 0.000304 -0.018040 -0.003630
			 0.000007 -0.017642 -0.003970
			 0.000247 -0.017228 -0.004256
			 0.001228 -0.016818 -0.004379
			 0.000789 -0.017293 -0.004215
			 0.001505 -0.017925 -0.003686
			 0.001523 -0.018110 -0.002961
			-0.000233 -0.017957 -0.002915
			 0.000734 -0.018265 -0.002692
			 0.001858 -0.017190 -0.004097
			 0.001864 -0.017576 -0.003753
			-0.000791 -0.017617 -0.002913
			-0.000390 -0.017098 -0.004166
			-0.000807 -0.016659 -0.004237
			-0.000269 -0.016605 -0.004426
			-0.000813 -0.017373 -0.003628
			 0.000567 -0.015953 -0.004583
			 0.001391 -0.016113 -0.004541
			 0.001943 -0.017813 -0.002670
			 0.001451 -0.017965 -0.002474
			 0.000495 -0.017912 -0.002350
			-0.000312 -0.017691 -0.002409
			 0.001746 -0.015479 -0.004582
			 0.002072 -0.016351 -0.004317
			 0.002366 -0.017617 -0.002896
			 0.002837 -0.016646 -0.003446
			 0.002679 -0.015326 -0.004281
			-0.001079 -0.017271 -0.002508
			-0.001420 -0.016967 -0.002890
			-0.001049 -0.015751 -0.004449
			-0.000301 -0.016034 -0.004584
			-0.001355 -0.016287 -0.003973
			-0.001226 -0.016776 -0.003744
			 0.000167 -0.015245 -0.004672
			 0.002289 -0.017402 -0.002398
			 0.001501 -0.017509 -0.002125
			 0.000167 -0.017124 -0.002033
			 0.000769 -0.016291 -0.001828
			 0.001053 -0.016713 -0.001855
			-0.000444 -0.017117 -0.002123
			 0.002801 -0.013966 -0.004339
			 0.001972 -0.014797 -0.004576
			 0.000929 -0.014813 -0.004596
			 0.001330 -0.013956 -0.004524
			 0.002673 -0.017159 -0.002886
			 0.003073 -0.015135 -0.004025
			 0.003235 -0.015508 -0.003505
			 0.002920 -0.016506 -0.002623
			 0.003248 -0.015964 -0.003086
			-0.001245 -0.016728 -0.002247
			-0.000656 -0.016318 -0.001839
			-0.001695 -0.016005 -0.003360
			-0.001662 -0.016528 -0.002942
			-0.001716 -0.015878 -0.003847
			-0.000715 -0.014848 -0.004589
			-0.001297 -0.014897 -0.004424
			-0.001801 -0.015421 -0.004057
			 0.000017 -0.014400 -0.004594
			 0.001629 -0.016695 -0.001882
			 0.002227 -0.016648 -0.002038
			 0.000175 -0.015879 -0.001791
			 0.001295 -0.015417 -0.001825
			 0.001873 -0.016251 -0.001911
			 0.002319 -0.013896 -0.004459
			 0.002527 -0.013116 -0.004295
			 0.003168 -0.014524 -0.004104
			 0.003175 -0.013166 -0.004013
			 0.003367 -0.014041 -0.003951
			 0.000577 -0.013981 -0.004450
			 0.001694 -0.013523 -0.004488
			 0.001214 -0.013167 -0.004189
			 0.003329 -0.014885 -0.003584
			 0.003242 -0.015512 -0.002753
			 0.003354 -0.015091 -0.003109
			 0.002335 -0.015775 -0.002062
			-0.000948 -0.015897 -0.001816
			-0.001678 -0.016215 -0.002398
			-0.000125 -0.015467 -0.001728
			-0.000872 -0.015023 -0.001851
			-0.002014 -0.015353 -0.003413
			-0.001921 -0.015274 -0.002769
			-0.001807 -0.015748 -0.002574
			-0.002135 -0.014610 -0.003839
			-0.001401 -0.013641 -0.004242
			-0.000527 -0.013995 -0.004515
			-0.001591 -0.014506 -0.004264
			 0.000395 -0.015048 -0.001623
			 0.000338 -0.014213 -0.001485
			 0.001276 -0.014583 -0.001677
			 0.002327 -0.014423 -0.002308
			 0.001746 -0.014525 -0.001902
			 0.002990 -0.014798 -0.002508
			 0.002012 -0.013109 -0.004376
			 0.003109 -0.012334 -0.003864
			 0.002621 -0.012317 -0.003988
			 0.003417 -0.012811 -0.003638
			 0.003486 -0.013700 -0.003519
			 0.003307 -0.014256 -0.002976
			 0.000254 -0.013578 -0.004373
			 0.000661 -0.013192 -0.004120
			 0.001722 -0.011817 -0.003896
			 0.000943 -0.012338 -0.004049
			-0.001526 -0.015400 -0.002158
			 0.000037 -0.014620 -0.001627
			-0.000593 -0.014594 -0.001807
			-0.001695 -0.014944 -0.002282
			-0.001647 -0.014040 -0.002458
			-0.001267 -0.013207 -0.002336
			-0.002174 -0.014335 -0.003125
			-0.001926 -0.014425 -0.002699
			-0.001765 -0.013277 -0.003968
			-0.002168 -0.013776 -0.003698
			-0.001247 -0.012827 -0.004001
			-0.000528 -0.012801 -0.004043
			 0.000884 -0.013785 -0.001412
			 0.000494 -0.012545 -0.001186
			 0.000051 -0.013735 -0.001451
			 0.000207 -0.012125 -0.001156
			-0.000064 -0.012949 -0.001365
			 0.002250 -0.013170 -0.002111
			 0.002541 -0.013524 -0.002439
			 0.003060 -0.013700 -0.002759
			 0.003061 -0.011676 -0.003370
			 0.002414 -0.011531 -0.003646
			 0.003054 -0.012986 -0.002875
			 0.003314 -0.012490 -0.003135
			-0.000391 -0.011975 -0.003859
			 0.000033 -0.011518 -0.003927
			 0.000478 -0.011071 -0.003950
			 0.002150 -0.011104 -0.003647
			 0.001218 -0.011484 -0.003967
			-0.000811 -0.013301 -0.001803
			-0.002130 -0.013483 -0.003121
			-0.001598 -0.012640 -0.002913
			-0.001110 -0.012462 -0.002106
			-0.000489 -0.012515 -0.001408
			-0.001951 -0.012914 -0.003662
			-0.001659 -0.012490 -0.003668
			-0.001021 -0.012445 -0.003747
			 0.000988 -0.012948 -0.001275
			 0.001513 -0.012894 -0.001471
			 0.000918 -0.012110 -0.001155
			-0.000533 -0.011678 -0.001287
			-0.000316 -0.011084 -0.001149
			 0.000448 -0.011282 -0.001030
			 0.002075 -0.011961 -0.001728
			 0.002772 -0.012308 -0.002654
			 0.002700 -0.011248 -0.003241
			 0.002834 -0.011719 -0.002756
			 0.002557 -0.010755 -0.003227
			-0.000492 -0.011135 -0.003755
			-0.000830 -0.011621 -0.003537
			-0.000266 -0.010251 -0.003818
			-0.000755 -0.010318 -0.003558
			 0.000012 -0.009364 -0.003885
			 0.002123 -0.009594 -0.003498
			 0.000964 -0.010204 -0.003916
			 0.001994 -0.008636 -0.003637
			-0.001364 -0.012249 -0.002707
			-0.001406 -0.012187 -0.003219
			-0.001197 -0.011540 -0.001978
			 0.001450 -0.011227 -0.001188
			 0.001164 -0.010837 -0.001024
			-0.000419 -0.010424 -0.001081
			-0.000949 -0.010789 -0.001432
			 0.000115 -0.010025 -0.000877
			 0.000694 -0.010439 -0.000912
			 0.002559 -0.011381 -0.002346
			 0.002243 -0.011095 -0.001718
			 0.001688 -0.010782 -0.001220
			 0.002579 -0.009944 -0.002985
			 0.002709 -0.010877 -0.002665
			 0.002530 -0.010549 -0.002203
			 0.002459 -0.009047 -0.003140
			-0.000907 -0.010784 -0.003421
			-0.001193 -0.010446 -0.003016
			-0.001225 -0.011740 -0.003032
			-0.000458 -0.008523 -0.003816
			-0.000687 -0.008986 -0.003704
			-0.001194 -0.009177 -0.003274
			-0.000051 -0.008220 -0.003951
			 0.001055 -0.008700 -0.003924
			 0.002277 -0.007786 -0.003566
			 0.001653 -0.007527 -0.003865
			 0.002725 -0.007770 -0.003015
			-0.001290 -0.010956 -0.002669
			-0.001287 -0.010285 -0.001789
			 0.000688 -0.009598 -0.000803
			 0.001108 -0.010001 -0.000895
			 0.001615 -0.009114 -0.000942
			-0.000866 -0.009144 -0.001039
			-0.000014 -0.008361 -0.000582
			-0.001205 -0.009509 -0.001380
			 0.002344 -0.009390 -0.001586
			 0.002644 -0.009623 -0.002462
			 0.002718 -0.008265 -0.002661
			 0.002679 -0.008658 -0.002258
			 0.002597 -0.008361 -0.001747
			 0.002995 -0.007327 -0.002577
			-0.000559 -0.007647 -0.003876
			-0.001030 -0.008591 -0.003570
			-0.001201 -0.008033 -0.003560
			-0.001451 -0.008708 -0.003078
			-0.001485 -0.009383 -0.001978
			-0.001609 -0.008849 -0.002445
			 0.000347 -0.007086 -0.004011
			 0.000854 -0.008025 -0.003989
			 0.002553 -0.007233 -0.003509
			 0.001470 -0.006726 -0.003944
			 0.002158 -0.006996 -0.003731
			 0.003121 -0.006915 -0.002928
			-0.001418 -0.008640 -0.001414
			 0.000889 -0.008758 -0.000663
			 0.002033 -0.008636 -0.001116
			-0.001122 -0.008288 -0.001017
			 0.000697 -0.007936 -0.000481
			 0.000154 -0.007542 -0.000363
			-0.000767 -0.007919 -0.000697
			 0.002832 -0.007863 -0.002021
			 0.003057 -0.007148 -0.001884
			 0.002852 -0.006481 -0.000996
			 0.002285 -0.007777 -0.001061
			-0.000929 -0.007248 -0.003757
			-0.000317 -0.006353 -0.003841
			-0.001652 -0.007803 -0.003268
			-0.001624 -0.008176 -0.001575
			-0.001862 -0.007994 -0.002423
			-0.001815 -0.007620 -0.001575
			 0.000663 -0.005874 -0.003957
			 0.001052 -0.006296 -0.003967
			 0.002644 -0.006352 -0.003564
			 0.003206 -0.006429 -0.003170
			 0.002214 -0.005891 -0.003738
			 0.001227 -0.005442 -0.003908
			 0.003409 -0.006450 -0.002677
			 0.001673 -0.007875 -0.000673
			 0.001927 -0.007432 -0.000696
			-0.000489 -0.006722 -0.000213
			-0.001119 -0.006788 -0.000528
			-0.001391 -0.007437 -0.000978
			 0.000894 -0.006712 -0.000135
			 0.001506 -0.007081 -0.000365
			-0.000133 -0.007130 -0.000292
			 0.003165 -0.006703 -0.001613
			 0.002061 -0.006615 -0.000465
			 0.003540 -0.006309 -0.002078
			 0.003499 -0.005973 -0.001286
			 0.002943 -0.005351 -0.000230
			-0.001156 -0.006396 -0.003721
			-0.000932 -0.005951 -0.003760
			-0.001219 -0.005104 -0.003697
			-0.002069 -0.006998 -0.003098
			-0.001804 -0.006477 -0.003408
			-0.002200 -0.007237 -0.001968
			-0.002487 -0.006794 -0.002043
			-0.000904 -0.004655 -0.003747
			 0.000644 -0.004603 -0.003836
			 0.002481 -0.005469 -0.003663
			 0.003314 -0.005544 -0.003246
			 0.001651 -0.004590 -0.003805
			 0.000924 -0.004174 -0.003794
			 0.003987 -0.005970 -0.002263
			 0.003640 -0.005880 -0.002939
			 0.000215 -0.006328  0.000028
			-0.000345 -0.006213  0.000015
			-0.001307 -0.005894 -0.000213
			-0.001986 -0.006178 -0.000861
			-0.002575 -0.006454 -0.001626
			 0.000724 -0.006102  0.000134
			 0.001376 -0.006290 -0.000037
			 0.002231 -0.005505  0.000092
			 0.003411 -0.005291 -0.000456
			 0.004167 -0.005508 -0.001324
			 0.002786 -0.004657  0.000564
			-0.001536 -0.005997 -0.003607
			-0.001805 -0.004724 -0.003515
			-0.002313 -0.006320 -0.003105
			-0.002908 -0.006048 -0.001536
			-0.002978 -0.006300 -0.002224
			-0.002767 -0.006192 -0.002834
			 0.000295 -0.004090 -0.003718
			-0.000802 -0.003834 -0.003534
			 0.002481 -0.004647 -0.003601
			 0.003735 -0.004304 -0.002949
			 0.003877 -0.005193 -0.002821
			 0.002737 -0.004197 -0.003526
			 0.001743 -0.003745 -0.003702
			 0.002247 -0.003766 -0.003564
			 0.000798 -0.003522 -0.003579
			 0.001313 -0.003157 -0.003470
			 0.004330 -0.005302 -0.002285
			-0.000323 -0.005439  0.000425
			 0.001246 -0.005836  0.000227
			-0.001804 -0.005092  0.000123
			-0.001080 -0.004776  0.000712
			-0.001840 -0.005448 -0.000238
			-0.002484 -0.005759 -0.000845
			 0.001760 -0.005446  0.000339
			 0.002318 -0.004648  0.000803
			 0.003947 -0.005120 -0.000624
			 0.003663 -0.004823 -0.000226
			 0.003241 -0.004435  0.000361
			 0.004500 -0.005030 -0.001546
			 0.004341 -0.004757 -0.000834
			-0.002298 -0.005664 -0.003221
			-0.002650 -0.005268 -0.003092
			-0.002321 -0.004364 -0.003235
			-0.002066 -0.003921 -0.003251
			-0.003142 -0.005699 -0.001202
			-0.003482 -0.005728 -0.001897
			-0.003167 -0.005501 -0.002677
			-0.000215 -0.003419 -0.003376
			-0.001277 -0.003478 -0.003231
			-0.000695 -0.003063 -0.003095
			 0.004371 -0.004602 -0.002286
			 0.004330 -0.003953 -0.002185
			 0.003828 -0.003506 -0.002630
			 0.003135 -0.003814 -0.003262
			 0.001691 -0.002714 -0.003174
			 0.002602 -0.003327 -0.003282
			-0.000237 -0.002645 -0.002990
			-0.000095 -0.004728  0.000938
			 0.001127 -0.004948  0.000830
			-0.001577 -0.004699  0.000614
			-0.002373 -0.004927  0.000125
			-0.000376 -0.004038  0.001361
			-0.001405 -0.004023  0.001199
			-0.003028 -0.005281 -0.000559
			 0.001800 -0.004977  0.000701
			 0.002733 -0.003880  0.000933
			 0.001902 -0.004372  0.001123
			 0.002275 -0.003940  0.001165
			 0.003861 -0.004037 -0.000215
			 0.003291 -0.003776  0.000515
			 0.004428 -0.003723 -0.001587
			 0.004267 -0.003847 -0.000951
			-0.003016 -0.004454 -0.002892
			-0.003325 -0.004944 -0.002659
			-0.002538 -0.003802 -0.003000
			-0.002513 -0.003082 -0.002598
			-0.002009 -0.002541 -0.002462
			-0.001502 -0.002045 -0.002334
			-0.003559 -0.005501 -0.001397
			-0.003704 -0.005065 -0.002144
			-0.003905 -0.004747 -0.001646
			-0.000842 -0.001914 -0.002435
			-0.000262 -0.001864 -0.002605
			 0.004094 -0.003417 -0.002214
			 0.004009 -0.003058 -0.001694
			 0.003667 -0.003054 -0.002384
			 0.002840 -0.002774 -0.002793
			 0.001187 -0.002137 -0.002846
			 0.001742 -0.001864 -0.002417
			 0.000689 -0.002215 -0.002890
			 0.000317 -0.004417  0.001179
			 0.000877 -0.004411  0.001201
			-0.002537 -0.004423  0.000380
			-0.001950 -0.004369  0.000750
			-0.003045 -0.004634 -0.000107
			 0.001355 -0.004008  0.001386
			-0.000765 -0.003224  0.001556
			-0.000225 -0.003223  0.001604
			-0.001454 -0.003187  0.001327
			-0.001878 -0.003579  0.001094
			-0.003512 -0.004956 -0.000657
			 0.003028 -0.003395  0.000719
			 0.002564 -0.003213  0.000966
			 0.001736 -0.003579  0.001432
			 0.002120 -0.003096  0.001239
			 0.004034 -0.003356 -0.000987
			 0.003082 -0.002988  0.000299
			 0.003471 -0.003221 -0.000027
			-0.003413 -0.004105 -0.002548
			-0.003156 -0.003541 -0.002546
			-0.001965 -0.002124 -0.002109
			-0.002415 -0.002422 -0.001917
			-0.003116 -0.003046 -0.002179
			-0.001122 -0.001645 -0.002045
			-0.001578 -0.001834 -0.001837
			-0.003835 -0.004222 -0.002056
			-0.003839 -0.004432 -0.001100
			-0.000459 -0.001505 -0.002147
			 0.000350 -0.001595 -0.002462
			 0.003168 -0.002557 -0.002068
			 0.003310 -0.002597 -0.001497
			 0.002541 -0.002243 -0.002359
			 0.001230 -0.001706 -0.002490
			 0.002261 -0.002014 -0.001972
			 0.001365 -0.001639 -0.001902
			 0.001789 -0.001942 -0.001723
			-0.002250 -0.003952  0.000797
			-0.002755 -0.003859  0.000329
			-0.003382 -0.004147 -0.000387
			 0.001249 -0.003185  0.001563
			-0.000491 -0.002792  0.001586
			-0.000906 -0.002457  0.001418
			 0.000659 -0.002775  0.001611
			 0.000069 -0.002790  0.001628
			-0.001626 -0.002650  0.000833
			-0.002395 -0.003442  0.000646
			-0.002364 -0.002932  0.000262
			 0.002395 -0.002740  0.000462
			 0.001734 -0.002772  0.001335
			 0.001919 -0.002606  0.000721
			 0.003331 -0.002831 -0.000781
			 0.002524 -0.002767 -0.000471
			-0.003692 -0.003463 -0.001831
			-0.002603 -0.002543 -0.001296
			-0.002073 -0.002425 -0.001227
			-0.003189 -0.002905 -0.001693
			-0.000762 -0.001925 -0.001398
			-0.003406 -0.003585 -0.000695
			-0.003559 -0.003359 -0.001238
			 0.000271 -0.001333 -0.001956
			 0.000816 -0.001455 -0.001924
			 0.002683 -0.002279 -0.001787
			 0.002473 -0.002550 -0.001207
			 0.000533 -0.002198 -0.001226
			 0.001622 -0.002411 -0.001157
			-0.002754 -0.003176 -0.000003