<?xml version="1.0"?>
<VTKFile type="PolyData" version="0.1" byte_order="LittleEndian" compressor="vtkZLibDataCompressor">
	<PolyData>
		<Piece NumberOfPoints="1546" NumberOfVerts="0" NumberOfLines="0" NumberOfStrips="0" NumberOfPolys="3096">
		<PointData Normals="Normals">
		<DataArray type="Float32" Name="Normals" NumberOfComponents="3" format="ascii">
			-0.226572 -0.152341  0.962007
			-0.022157 -0.316814  0.948229
			-0.401609 -0.224466  0.887877
			-0.309423 -0.093300  0.946336
			 0.083836 -0.226608  0.970371
			-0.049791 -0.074983  0.995941
			-0.178707 -0.483489  0.856914
			 0.162543 -0.457648  0.874150
			 0.325520 -0.425258  0.844507
			-0.567109 -0.118629  0.815055
			-0.492073 -0.352374  0.796051
			-0.748996 -0.053993  0.660371
			-0.511292 -0.112384  0.852027
			-0.168766 -0.048952  0.984440
			-0.380067 -0.038209  0.924169
			 0.190393 -0.271546  0.943405
			-0.027595 -0.151311  0.988101
			-0.037402 -0.102450  0.994035
			-0.204775 -0.609427  0.765941
			 0.196492 -0.647272  0.736498
			 0.190366 -0.676004  0.711884
			 0.081758 -0.517325  0.851875
			-0.811898 -0.164481  0.560149
			-0.699835 -0.147893  0.698827
			-0.726822 -0.195366  0.658454
			-0.497805 -0.413891  0.762158
			-0.907890 -0.129968  0.398554
			-0.857876  0.062054  0.510097
			-0.911981  0.110222  0.395149
			-0.619506 -0.081746  0.780724
			-0.210142 -0.109054  0.971570
			-0.501215 -0.060159  0.863229
			-0.618625 -0.028232  0.785179
			 0.072551 -0.508122  0.858224
			-0.115189 -0.373184  0.920579
			-0.123484 -0.181231  0.975657
			-0.110735 -0.167930  0.979560
			-0.074487 -0.163355  0.983752
			-0.082374 -0.118106  0.989579
			-0.127245 -0.162310  0.978501
			-0.105965 -0.174708  0.978902
			 0.096980 -0.807336  0.582068
			-0.494719 -0.541918  0.679396
			-0.209135 -0.774008  0.597641
			 0.298205 -0.834352  0.463606
			 0.231482 -0.877634  0.419731
			-0.008701 -0.707114  0.707046
			-0.240719 -0.500804  0.831414
			-0.269613 -0.571361  0.775149
			-0.747832 -0.122479  0.652493
			-0.879254 -0.214388  0.425383
			-0.831054 -0.139908  0.538308
			-0.818281 -0.208203  0.535787
			-0.910726 -0.053730  0.409501
			-0.921726 -0.052285  0.384300
			-0.877654 -0.239707  0.415047
			-0.913338 -0.242323  0.327250
			-0.896577 -0.153122  0.415577
			-0.152614 -0.162114  0.974899
			-0.334076 -0.127787  0.933844
			-0.618744  0.034181  0.784849
			-0.555119 -0.131163  0.821364
			-0.727067 -0.111104  0.677517
			-0.719836 -0.100154  0.686880
			-0.686426  0.003381  0.727191
			-0.727284 -0.062597  0.683476
			-0.678159  0.002910  0.734909
			-0.277698 -0.409047  0.869232
			-0.117539 -0.189349  0.974850
			-0.109560 -0.179260  0.977682
			-0.128896 -0.194687  0.972359
			-0.045168 -0.154188  0.987009
			-0.054225 -0.185772  0.981096
			 0.028354 -0.099694  0.994614
			 0.091618 -0.102238  0.990532
			 0.056250 -0.943797  0.325704
			-0.716962 -0.476363  0.508964
			-0.330530 -0.802676  0.496448
			 0.310564 -0.950546 -0.003433
			 0.500664 -0.821153  0.273942
			 0.181495 -0.977547 -0.107057
			-0.162519 -0.980942  0.106491
			-0.146048 -0.889189  0.433603
			-0.287170 -0.734817  0.614473
			-0.227158 -0.496381  0.837858
			-0.344480 -0.649528  0.677825
			-0.910425 -0.217368  0.351962
			-0.747386  0.010092  0.664314
			-0.863992 -0.067327  0.498985
			-0.844159  0.048184  0.533923
			-0.898074 -0.274372  0.343778
			-0.912604 -0.142030  0.383382
			-0.869711 -0.045737  0.491437
			-0.852279 -0.054169  0.520274
			-0.943222 -0.122941  0.308572
			-0.921558 -0.149856  0.358155
			-0.911788 -0.175944  0.371062
			-0.189091 -0.149878  0.970454
			-0.342210 -0.182016  0.921826
			-0.444731 -0.149520  0.883096
			-0.571166 -0.107349  0.813785
			-0.458384 -0.134413  0.878531
			-0.793186 -0.094746  0.601564
			-0.841804 -0.088440  0.532489
			-0.799341 -0.090244  0.594062
			-0.613488 -0.080628  0.785578
			-0.753725 -0.018974  0.656917
			-0.870776 -0.044193  0.489689
			-0.762376  0.040673  0.645855
			 0.094113 -0.219453  0.971073
			 0.016413 -0.163575  0.986394
			-0.260578 -0.199119  0.944696
			 0.033668 -0.187643  0.981660
			-0.054973 -0.184241  0.981343
			-0.111107 -0.186344  0.976182
			 0.030573 -0.144542  0.989026
			 0.293503 -0.092885  0.951435
			 0.211202 -0.110035  0.971229
			 0.421553 -0.044372  0.905717
			-0.056584 -0.997376  0.045155
			-0.681758 -0.627012  0.376910
			-0.368971 -0.886756  0.278432
			 0.393142 -0.893954 -0.215142
			 0.170101 -0.972059 -0.161765
			 0.352612 -0.855238 -0.379781
			-0.316559 -0.918641 -0.236408
			 0.326893 -0.872791 -0.362461
			-0.039940 -0.905796 -0.421827
			-0.345867 -0.834983 -0.427995
			-0.291831 -0.937539  0.189353
			-0.240875 -0.853964  0.461221
			-0.104885 -0.746679  0.656863
			 0.307645 -0.290742  0.905993
			 0.034705 -0.532392  0.845786
			-0.908523  0.027205  0.416949
			-0.964432  0.115640  0.237693
			-0.950572  0.107926  0.291145
			-0.743684 -0.666791  0.048210
			-0.849512 -0.527564  0.002240
			-0.932876 -0.270941  0.237346
			-0.886450 -0.066240  0.458059
			-0.951083 -0.077467  0.299067
			-0.988309  0.026616  0.150126
			-0.968236 -0.010198  0.249830
			-0.964728 -0.080967  0.250490
			-0.986207  0.057049 -0.155376
			-0.270034 -0.161254  0.949252
			-0.435005 -0.110945  0.893567
			-0.940443 -0.065155  0.333650
			-0.933230 -0.105266  0.343513
			-0.738489 -0.071664  0.670446
			-0.846830 -0.090214  0.524157
			-0.847477 -0.061551  0.527252
			-0.664427 -0.071303  0.743944
			-0.574825 -0.095837  0.812645
			-0.371043 -0.116913  0.921226
			-0.995131  0.094200 -0.029003
			-0.976781 -0.035982  0.211199
			 0.480920 -0.186708  0.856654
			 0.193787 -0.138959  0.971152
			-0.110253 -0.179797  0.977506
			 0.242100 -0.137625  0.960441
			 0.082527 -0.142817  0.986302
			 0.524306 -0.145089  0.839078
			 0.566145 -0.058590  0.822221
			 0.454190 -0.060880  0.888822
			 0.676735 -0.040608  0.735106
			 0.094243 -0.898276 -0.429208
			-0.425945 -0.902670 -0.061298
			-0.348833 -0.914995 -0.202732
			-0.358188 -0.884251 -0.299671
			 0.319639 -0.662786 -0.677160
			 0.259948 -0.717017 -0.646771
			-0.124063 -0.987275 -0.099476
			-0.372651 -0.772943 -0.513507
			-0.180155 -0.832832 -0.523389
			-0.272956 -0.706546 -0.652908
			-0.232088 -0.935102  0.267806
			 0.044472 -0.781811  0.621927
			 0.046050 -0.923073  0.381858
			 0.279161 -0.584754  0.761664
			 0.350856 -0.592307  0.725309
			 0.693193 -0.157723  0.703283
			 0.681675 -0.171936  0.711166
			 0.414626 -0.363241  0.834351
			-0.974906  0.209535 -0.075188
			-0.945480  0.292452 -0.143318
			-0.721208 -0.588959 -0.364673
			-0.465832 -0.784689 -0.408979
			-0.803911 -0.586479 -0.098841
			-0.961371 -0.271563  0.044943
			-0.776193 -0.504435 -0.378246
			-0.988802 -0.131779 -0.070036
			-0.992020 -0.069496 -0.105200
			-0.984038  0.172965 -0.041858
			-0.873316  0.428696 -0.231386
			-0.748050  0.272261 -0.605223
			-0.721685  0.501223 -0.477438
			-0.887003 -0.011498 -0.461621
			-0.743933  0.123252 -0.656790
			-0.210861 -0.158927  0.964510
			 0.067147 -0.158931  0.985004
			-0.998800 -0.040712  0.027239
			-0.994137 -0.096994 -0.047787
			-0.959772 -0.059021 -0.274507
			-0.988228 -0.053883  0.143185
			-0.730880 -0.053738  0.680387
			-0.628754 -0.057393  0.775483
			-0.916706 -0.019943  0.399064
			-0.871947 -0.050207  0.487019
			-0.915405 -0.102948  0.389148
			-0.998215 -0.047405  0.036315
			-0.519839 -0.080298  0.850482
			-0.152819 -0.131891  0.979414
			-0.157469 -0.128801  0.979088
			-0.259785 -0.093717  0.961108
			-0.426625 -0.070800  0.901653
			-0.853079  0.248383 -0.458870
			-0.992043  0.051085 -0.115072
			-0.929322  0.115554 -0.350726
			-0.730581  0.138301 -0.668673
			-0.654572  0.288856 -0.698640
			 0.701127 -0.241091  0.671041
			 0.787196 -0.145566  0.599277
			 0.473175 -0.111468  0.873888
			 0.357092 -0.128956  0.925125
			 0.682614 -0.138972  0.717444
			 0.625006 -0.015796  0.780460
			 0.700014 -0.033173  0.713358
			 0.789201 -0.230576  0.569207
			 0.742905  0.018106  0.669152
			 0.855364 -0.174175  0.487868
			 0.782283  0.015064  0.622741
			 0.794160 -0.091893  0.600722
			-0.080583 -0.842179 -0.533142
			-0.011766 -0.591968 -0.805876
			 0.115905 -0.674995 -0.728661
			 0.222517 -0.454545 -0.862482
			 0.369163 -0.501285 -0.782581
			 0.447578 -0.557142 -0.699476
			 0.095846 -0.596936 -0.796543
			 0.329591 -0.936056 -0.123160
			 0.047111 -0.924524 -0.378202
			-0.394531 -0.593044 -0.701886
			-0.308186 -0.629003 -0.713707
			 0.192369 -0.809658 -0.554480
			 0.002992 -0.651491 -0.758650
			-0.235163 -0.467351 -0.852222
			 0.434371 -0.643768  0.629988
			 0.474826 -0.813898  0.334828
			 0.516826 -0.381962  0.766156
			 0.616354 -0.342301  0.709181
			 0.898062 -0.044400  0.437623
			 0.861882 -0.109545  0.495136
			-0.632143  0.455392 -0.626908
			-0.246796 -0.594157 -0.765551
			-0.440202 -0.565596 -0.697369
			-0.861933 -0.301590 -0.407571
			-0.469457 -0.360430 -0.806040
			-0.765593 -0.183218 -0.616683
			-0.858274 -0.061812 -0.509456
			-0.452487  0.705708 -0.545190
			-0.448458  0.357078 -0.819378
			-0.280960  0.650865 -0.705292
			-0.612454  0.095446 -0.784723
			-0.538346  0.188999 -0.821257
			-0.028187 -0.140302  0.989707
			 0.241481 -0.120090  0.962946
			 0.371931 -0.123526  0.920005
			 0.178545 -0.118465  0.976774
			 0.353849 -0.152961  0.922710
			-0.927380  0.015359 -0.373804
			-0.874808 -0.018277 -0.484125
			-0.723220  0.075158 -0.686516
			-0.648292  0.008641 -0.761343
			-0.621985 -0.047888  0.781564
			-0.698846 -0.057558  0.712953
			-0.598215 -0.059149  0.799150
			-0.802630 -0.051084  0.594286
			-0.548571 -0.062664  0.833752
			-0.481775 -0.064859  0.873891
			-0.995098 -0.061504  0.077438
			-0.928231 -0.025569  0.371123
			-0.966928 -0.048445 -0.250407
			-0.771397 -0.078032 -0.631552
			-0.019487 -0.140355  0.989909
			-0.074335 -0.140555  0.987278
			-0.136309 -0.096907  0.985915
			-0.309306 -0.061403  0.948978
			-0.421424  0.315073 -0.850371
			-0.838475  0.110835 -0.533550
			-0.684956  0.179198 -0.706204
			-0.458174  0.117264 -0.881093
			-0.170337  0.250825 -0.952928
			 0.884532 -0.283787  0.370229
			 0.914069 -0.189036  0.358807
			 0.584280 -0.101580  0.805170
			 0.510420 -0.086594  0.855554
			 0.859813  0.047756  0.508371
			 0.874379  0.002736  0.485236
			 0.766020 -0.059377  0.640069
			 0.939723 -0.200547  0.276950
			 0.941786 -0.065447  0.329781
			 0.903599  0.034025  0.427027
			-0.171797 -0.367161 -0.914155
			 0.216645 -0.336602 -0.916386
			 0.031968 -0.288508 -0.956944
			 0.332742 -0.336255 -0.881031
			 0.224220 -0.447352 -0.865795
			 0.738347 -0.647914  0.187219
			 0.445690 -0.730936 -0.516811
			 0.670586 -0.718583 -0.184260
			-0.295521 -0.451300 -0.842019
			-0.001043 -0.463608 -0.886040
			 0.420548 -0.629963 -0.652906
			-0.363210 -0.274760 -0.890273
			 0.148439 -0.204744 -0.967495
			-0.229043 -0.243231 -0.942538
			 0.794336 -0.298677  0.528982
			 0.833631 -0.370706  0.409433
			 0.936221 -0.040929  0.349021
			 0.942079 -0.064585  0.329113
			-0.152750  0.626069 -0.764660
			-0.418110  0.506185 -0.754295
			-0.352625  0.376350 -0.856747
			-0.354978 -0.186628 -0.916057
			-0.095075 -0.150824 -0.983978
			-0.590934 -0.053812 -0.804923
			-0.531855  0.065430 -0.844304
			-0.343920  0.215448 -0.913948
			-0.244651  0.394687 -0.885646
			-0.121913  0.589885 -0.798231
			-0.241586  0.151510 -0.958478
			 0.424551 -0.089861  0.900934
			 0.577581 -0.070084  0.813319
			 0.036888 -0.128480  0.991026
			 0.207884 -0.100649  0.972962
			 0.406098 -0.070484  0.911107
			-0.490031  0.057354 -0.869816
			-0.578099  0.135030 -0.804717
			-0.465161  0.157237 -0.871150
			-0.476050  0.130136 -0.869736
			-0.358700  0.091735 -0.928934
			-0.626632 -0.040847  0.778244
			-0.753488 -0.055230  0.655138
			-0.435915 -0.054570  0.898332
			-0.530939 -0.025281  0.847033
			-0.845556 -0.039403  0.532431
			-0.315880 -0.092031  0.944325
			-0.380085 -0.064060  0.922730
			-0.997513 -0.034644 -0.061387
			-0.853162 -0.091694 -0.513524
			-0.919428 -0.031255  0.392013
			-0.347547 -0.043301 -0.936662
			-0.466392 -0.189468 -0.864049
			-0.031798 -0.080616  0.996238
			-0.200374  0.409850 -0.889873
			-0.339079  0.171474 -0.924998
			-0.098718  0.177287 -0.979196
			 0.004880  0.304508 -0.952497
			 0.104410  0.249374 -0.962762
			-0.069178  0.309447 -0.948397
			 0.943290 -0.231334  0.238095
			 0.925353 -0.197462  0.323620
			 0.619332 -0.084620  0.780556
			 0.635107 -0.070744  0.769178
			 0.945530  0.097635  0.310550
			 0.902397 -0.015788  0.430616
			 0.976511  0.005634  0.215392
			 0.906410 -0.033607  0.421061
			 0.763240 -0.059261  0.643392
			 0.984464  0.130786  0.117159
			 0.965766  0.057765  0.252902
			 0.980366  0.155359  0.121437
			 0.179061 -0.132754 -0.974840
			 0.309482 -0.250139 -0.917416
			 0.318884 -0.199168 -0.926631
			 0.052634 -0.091989 -0.994368
			 0.901328 -0.306950  0.305597
			 0.919593 -0.367239  0.139589
			 0.821086 -0.542379 -0.177884
			-0.243359 -0.281997 -0.928038
			-0.036810 -0.292349 -0.955603
			 0.233479 -0.289196 -0.928360
			 0.670254 -0.584222 -0.457650
			 0.803432 -0.414259 -0.427654
			-0.332901 -0.153880 -0.930321
			 0.316692 -0.032689 -0.947965
			-0.174293 -0.126468 -0.976539
			 0.200803 -0.097837 -0.974734
			-0.129981  0.009390 -0.991472
			 0.926781 -0.131921  0.351674
			 0.928753 -0.128038  0.347885
			 0.920262 -0.159757  0.357204
			 0.850684 -0.046852  0.523586
			 0.084632  0.668926 -0.738495
			 0.062512  0.546340 -0.835228
			 0.011162  0.403942 -0.914717
			-0.219965 -0.000967 -0.975507
			-0.000966  0.072792 -0.997347
			-0.097451  0.349975 -0.931677
			-0.045566  0.561431 -0.826268
			-0.109513  0.064846 -0.991868
			 0.706105 -0.048498  0.706445
			 0.558810 -0.054217  0.827521
			 0.141003 -0.071701  0.987409
			 0.356641 -0.064779  0.931993
			-0.355737  0.129668 -0.925547
			-0.419477  0.154798 -0.894470
			-0.471966  0.067008 -0.879066
			-0.649727 -0.043902  0.758899
			-0.763406 -0.060101  0.643116
			-0.277919 -0.055951  0.958974
			-0.177801 -0.062252  0.982096
			-0.371902 -0.015301  0.928146
			-0.525455 -0.031277  0.850247
			-0.171973 -0.096610  0.980353
			-0.993090 -0.037416 -0.111233
			-0.797586 -0.047153 -0.601359
			-0.330867 -0.087694 -0.939594
			-0.863541 -0.036685  0.502942
			-0.970893 -0.020148  0.238664
			-0.146510 -0.100966 -0.984043
			-0.516714 -0.101067 -0.850172
			 0.232203 -0.053990  0.971168
			 0.034916 -0.091868  0.995159
			-0.226171  0.112955 -0.967516
			-0.012382  0.195883 -0.980549
			-0.070132  0.111076 -0.991334
			-0.169134  0.115954 -0.978748
			 0.156643  0.391941 -0.906557
			 0.292386  0.372354 -0.880831
			 0.152598  0.186963 -0.970442
			 0.014910  0.090316 -0.995802
			 0.917990 -0.209678  0.336645
			 0.973789 -0.177849  0.141790
			 0.964584 -0.030641  0.261992
			 0.990032  0.140840  0.000416
			 0.949023 -0.009935  0.315051
			 0.986973 -0.022418  0.159319
			 0.987839  0.005313 -0.155391
			 0.905723 -0.063044  0.419155
			 0.963422 -0.049438  0.263388
			 0.837587 -0.070626  0.541719
			 0.843674 -0.040418  0.535333
			 0.992500  0.084459 -0.088379
			 0.857789  0.374607 -0.351948
			 0.789659  0.437404 -0.430252
			 0.857780  0.339930 -0.385566
			 0.930268  0.226876 -0.288322
			 0.198618 -0.016349 -0.979941
			 0.926364 -0.291371  0.238649
			 0.022932 -0.073806 -0.997009
			-0.133958 -0.087896 -0.987081
			 0.101098 -0.167230 -0.980721
			 0.395055 -0.409733 -0.822223
			 0.947747 -0.109850 -0.299515
			 0.647288 -0.213125 -0.731844
			 0.967859 -0.249133 -0.034372
			-0.230304  0.045903 -0.972036
			 0.264644  0.157691 -0.951366
			 0.219578  0.017821 -0.975432
			 0.211195  0.200922 -0.956571
			-0.251183  0.141995 -0.957468
			-0.090732  0.399634 -0.912174
			-0.274593  0.152146 -0.949448
			 0.980564  0.013168  0.195758
			 0.957455 -0.004220  0.288552
			 0.880439 -0.056668  0.470762
			 0.154192  0.621547 -0.768053
			 0.174574  0.658367 -0.732173
			 0.160042  0.530347 -0.832538
			 0.167373  0.185605 -0.968265
			 0.085542  0.365907 -0.926712
			 0.734711 -0.059761  0.675743
			 0.424602 -0.034442  0.904725
			 0.549517 -0.035172  0.834742
			 0.648471 -0.054536  0.759283
			-0.244509  0.087842 -0.965660
			-0.355933  0.098560 -0.929300
			-0.513985  0.099958 -0.851955
			-0.610970 -0.000532 -0.791654
			-0.659799 -0.039086  0.750425
			-0.727154 -0.046892  0.684871
			-0.078850 -0.039672  0.996097
			-0.251075 -0.034422  0.967356
			-0.000682 -0.093166  0.995650
			 0.085829 -0.048571  0.995125
			-0.115993 -0.059319  0.991477
			-0.276092 -0.055093  0.959551
			-0.483244 -0.036654  0.874718
			-0.436277 -0.072851  0.896859
			-0.545611 -0.047017  0.836719
			-0.810913 -0.034871 -0.584127
			-0.935712  0.000510 -0.352764
			-0.983147 -0.013944 -0.182285
			-0.387957 -0.048533 -0.920399
			-0.251681 -0.054182 -0.966293
			-0.055243 -0.013268 -0.998385
			-0.968303 -0.021745  0.248829
			-0.956367 -0.032544  0.290350
			-0.872772 -0.031802  0.487091
			-0.751768 -0.042552  0.658053
			-0.994595 -0.027716 -0.100058
			 0.329152 -0.029358  0.943820
			 0.138929 -0.061827  0.988371
			-0.011369  0.027766 -0.999550
			-0.130735  0.050300 -0.990140
			 0.265972  0.559333 -0.785115
			 0.197440  0.573144 -0.795314
			 0.135182  0.380303 -0.914929
			 0.051443  0.095569 -0.994093
			-0.035280  0.209974 -0.977070
			-0.037890  0.085442 -0.995622
			 0.020978  0.122342 -0.992266
			 0.033403  0.040764 -0.998610
			 0.068528  0.044089 -0.996675
			 0.080312  0.079587 -0.993587
			 0.929808  0.059615 -0.363184
			 0.978756  0.148942 -0.140898
			 0.877956  0.168568 -0.448083
			 0.989995 -0.008861 -0.140823
			 0.828687  0.097403 -0.551172
			 0.981276 -0.063956  0.181681
			 0.930608 -0.023839  0.365240
			 0.993322 -0.069625  0.091999
			 0.845030 -0.023385  0.534208
			 0.919341 -0.017523  0.393072
			 0.544123  0.672327 -0.501903
			 0.806822  0.473171 -0.353762
			 0.512536  0.461371 -0.724185
			 0.368761  0.660128 -0.654405
			 0.791413  0.200652 -0.577411
			 0.328564  0.460790 -0.824450
			-0.041176 -0.027178 -0.998782
			 0.312463 -0.159180 -0.936498
			 0.294878  0.039966 -0.954699
			 0.889740 -0.044336 -0.454309
			 0.575342 -0.041834 -0.816843
			 0.055342  0.114598 -0.991869
			-0.080169  0.210930 -0.974208
			 0.225750  0.468896 -0.853916
			 0.307630  0.353408 -0.883440
			 0.234912  0.546265 -0.803997
			 0.297130  0.564271 -0.770267
			-0.210757  0.269142 -0.939758
			 0.211263  0.693207 -0.689080
			-0.200693  0.624109 -0.755122
			-0.250527  0.514916 -0.819816
			 0.232549  0.652846 -0.720912
			 0.195740  0.625994 -0.754863
			 0.824423 -0.019495  0.565638
			 0.736402 -0.034666  0.675655
			 0.519577 -0.022264  0.854134
			 0.689661 -0.032250  0.723414
			 0.695556 -0.026645  0.717978
			-0.334557  0.080745 -0.938910
			-0.225470  0.057536 -0.972550
			-0.265830  0.050437 -0.962700
			-0.654011 -0.056948  0.754339
			 0.217534 -0.054332  0.974539
			 0.122482 -0.070869  0.989937
			-0.011616 -0.044803  0.998928
			-0.104251 -0.038076  0.993822
			-0.383298 -0.048519  0.922350
			-0.003371 -0.059178  0.998242
			-0.460006 -0.049555  0.886532
			-0.582728 -0.053352  0.810914
			-0.766226  0.017482 -0.642334
			-0.438099  0.033913 -0.898287
			-0.920843 -0.036734 -0.388199
			-0.067410  0.013101 -0.997639
			-0.679299 -0.080735 -0.729407
			-0.101227  0.042676 -0.993948
			-0.024848  0.013008 -0.999607
			 0.105423  0.027461 -0.994048
			-0.249046 -0.023580 -0.968205
			-0.999138 -0.024608  0.033423
			-0.978339 -0.030562  0.204739
			-0.998178 -0.020570  0.056715
			-0.887628 -0.030445  0.459555
			-0.656917 -0.051204  0.752222
			-0.758743 -0.043264  0.649952
			-0.894261 -0.048942 -0.444862
			-0.960984 -0.019571 -0.275912
			-0.826709 -0.033226 -0.561648
			 0.046692  0.024643 -0.998605
			-0.034946  0.032724 -0.998853
			-0.163312  0.060040 -0.984746
			-0.060368  0.046072 -0.997112
			-0.058430  0.569252 -0.820084
			-0.164944  0.401829 -0.900737
			-0.147365  0.352353 -0.924192
			-0.066199  0.207754 -0.975939
			 0.179873  0.113136 -0.977162
			 0.130225  0.210193 -0.968948
			 0.074662  0.020393 -0.997000
			 0.074678  0.032971 -0.996663
			 0.163855  0.030402 -0.986016
			 0.608600  0.239266 -0.756543
			 0.880743  0.102431 -0.462384
			 0.548670  0.130186 -0.825840
			 0.520489  0.082671 -0.849857
			 0.499525  0.176496 -0.848130
			 0.821600  0.348114 -0.451432
			 0.938595  0.136223 -0.316989
			 0.915247 -0.003332 -0.402880
			 0.759816  0.087846 -0.644176
			 0.619313  0.144762 -0.771683
			 0.985788 -0.012274  0.167543
			 0.995831 -0.035840  0.083884
			 0.865282 -0.139482 -0.481489
			 0.955237 -0.098435 -0.278985
			 0.933913  0.003167  0.357487
			 0.485708  0.593898 -0.641384
			 0.147322  0.762742 -0.629699
			 0.030814  0.622457 -0.782047
			 0.453722  0.186502 -0.871409
			 0.484065  0.096472 -0.869698
			 0.148413  0.373246 -0.915784
			 0.212912  0.211654 -0.953872
			 0.066943  0.286134 -0.955848
			-0.075679  0.514253 -0.854293
			-0.210416  0.606085 -0.767063
			-0.152421  0.685751 -0.711698
			 0.831720 -0.019607  0.554848
			 0.910043  0.011689  0.414348
			 0.384834 -0.059532  0.921064
			 0.577426 -0.070935  0.813355
			 0.735481 -0.043453  0.676150
			-0.190124  0.040317 -0.980932
			-0.184677  0.076940 -0.979783
			 0.212629 -0.047385  0.975984
			-0.199232 -0.042168  0.979045
			 0.116930 -0.046862  0.992034
			 0.065864 -0.043406  0.996884
			-0.358773 -0.048360  0.932171
			-0.476915 -0.050547  0.877495
			-0.337744 -0.044464  0.940187
			-0.568596 -0.046723  0.821289
			-0.660172  0.003780 -0.751105
			-0.177735  0.009233 -0.984035
			-0.176222  0.069795 -0.981873
			-0.159183 -0.012994 -0.987164
			 0.039252 -0.026354 -0.998882
			-0.154531 -0.034902 -0.987371
			-0.217352  0.012904 -0.976008
			-0.970655 -0.024339 -0.239241
			-0.999227  0.031956 -0.022880
			-0.968665 -0.004769  0.248326
			-0.983508  0.013990 -0.180324
			-0.986923  0.008058  0.160990
			-0.904559 -0.020090  0.425874
			-0.574268 -0.039489  0.817715
			-0.647320 -0.027493  0.761723
			-0.818545 -0.029487  0.573685
			-0.775156 -0.009034 -0.631705
			-0.468672 -0.039286 -0.882498
			 0.012782  0.026044 -0.999579
			 0.093316  0.010897 -0.995577
			 0.019483  0.034359 -0.999220
			-0.009563  0.310348 -0.950575
			-0.093871  0.446595 -0.889798
			 0.329595  0.087387 -0.940070
			 0.315001  0.150952 -0.937010
			 0.087168  0.017538 -0.996039
			 0.240782  0.027939 -0.970177
			 0.208649  0.045273 -0.976942
			 0.245728  0.328680 -0.911914
			 0.607528  0.097887 -0.788244
			 0.669399  0.082091 -0.738354
			 0.571994 -0.052271 -0.818591
			 0.380972  0.107970 -0.918261
			 0.995130 -0.013029 -0.097704
			 0.724808 -0.106805 -0.680622
			 0.854090 -0.050908 -0.517628
			 0.991903  0.036453  0.121656
			 0.070502  0.558511 -0.826496
			 0.923394 -0.005493  0.383813
			 0.889972 -0.030657  0.454983
			 0.954141  0.034929  0.297313
			 0.513461 -0.044201  0.856974
			 0.448039 -0.027395  0.893594
			 0.598350 -0.040095  0.800231
			 0.814424 -0.048929  0.578204
			 0.713299 -0.053163  0.698840
			-0.015986  0.019964 -0.999673
			-0.092889  0.063709 -0.993636
			-0.186737  0.065187 -0.980245
			 0.392772 -0.031288  0.919104
			-0.076797 -0.050036  0.995790
			 0.258256 -0.038103  0.965325
			-0.438485 -0.016645  0.898585
			-0.381866 -0.027403  0.923811
			-0.284088 -0.022624  0.958531
			-0.084290  0.025812 -0.996107
			-0.139519  0.014151 -0.990118
			-0.157887 -0.000016 -0.987457
			-0.010691 -0.030771 -0.999469
			-0.177119 -0.009320 -0.984145
			 0.005935  0.078311 -0.996911
			-0.126816 -0.079489 -0.988736
			-0.161854 -0.063102 -0.984795
			-0.144843 -0.020775 -0.989236
			-0.066739  0.023836 -0.997486
			-0.137782 -0.071509 -0.987878
			-0.957108  0.051289 -0.285157
			-0.848592  0.046096 -0.527036
			-0.607750  0.064028 -0.791543
			-0.982133 -0.010857  0.187874
			-0.980013 -0.005913 -0.198843
			-0.939840 -0.019830  0.341040
			-0.522714 -0.023816  0.852175
			-0.668381 -0.020351  0.743541
			-0.939076 -0.058548  0.338685
			-0.814334 -0.028508  0.579696
			-0.240259  0.153584 -0.958482
			 0.085116  0.042709 -0.995455
			 0.077277  0.014665 -0.996902
			 0.231767  0.050803 -0.971444
			 0.116191  0.061362 -0.991330
			 0.320677  0.081277 -0.943695
			 0.192714  0.047375 -0.980111
			 0.401214  0.089005 -0.911650
			 0.344782  0.063090 -0.936560
			 0.408145  0.031605 -0.912370
			 0.362628 -0.052439 -0.930458
			 0.434077 -0.102360 -0.895042
			 0.894990  0.010752 -0.445956
			 0.630596 -0.076252 -0.772356
			 0.998824  0.034619  0.033943
			 0.940326  0.044795 -0.337315
			 0.952175 -0.009456  0.305406
			 0.899661 -0.024558  0.435898
			 0.516958 -0.033899  0.855340
			 0.643706 -0.032960  0.764563
			 0.807496 -0.054289  0.587370
			 0.768252 -0.037703  0.639036
			-0.015007  0.059306 -0.998127
			-0.215446 -0.019365  0.976324
			 0.111418 -0.022699  0.993514
			 0.497744 -0.050197  0.865870
			 0.323144 -0.031175  0.945836
			-0.385598  0.006482  0.922644
			 0.064100  0.021656 -0.997709
			-0.040249 -0.004184 -0.999181
			 0.110386 -0.001449 -0.993888
			-0.126547  0.012798 -0.991878
			-0.273922 -0.044880 -0.960704
			-0.141053 -0.069339 -0.987571
			-0.146242 -0.072973 -0.986554
			-0.156257 -0.106113 -0.982000
			-0.091628 -0.145911 -0.985045
			-0.195688 -0.154730 -0.968383
			-0.385300 -0.042673 -0.921804
			-0.129710 -0.032775 -0.991010
			 0.010014  0.122123 -0.992464
			-0.151344 -0.080885 -0.985166
			 0.186070  0.058243 -0.980809
			 0.073491 -0.103908 -0.991868
			-0.142037 -0.099579 -0.984840
			-0.729830 -0.005759 -0.683604
			-0.525431  0.013242 -0.850733
			-0.997365 -0.068989  0.022454
			-0.880121 -0.052581 -0.471828
			-0.645800 -0.039871  0.762465
			-0.551116 -0.036165  0.833645
			-0.415983 -0.056930  0.907589
			-0.991918 -0.106286  0.069296
			-0.937511 -0.088259  0.336577
			-0.809272 -0.087662  0.580856
			 0.140223  0.030253 -0.989658
			 0.294324  0.055227 -0.954109
			 0.340646  0.024214 -0.939880
			 0.280290  0.036547 -0.959220
			 0.230128  0.015081 -0.973043
			 0.232327 -0.016258 -0.972502
			 0.316489 -0.051322 -0.947207
			 0.285706 -0.098228 -0.953270
			 0.711416 -0.021334 -0.702447
			 0.614896 -0.005031 -0.788592
			 0.362904 -0.071611 -0.929071
			 0.982778 -0.017535  0.183957
			 0.959028  0.016119 -0.282852
			 0.794297 -0.026317 -0.606959
			 0.909651 -0.025123  0.414613
			 0.650495 -0.039974  0.758458
			 0.844042 -0.024667  0.535709
			 0.800654 -0.018698  0.598835
			 0.156602  0.009764 -0.987614
			 0.049288 -0.026879  0.998423
			-0.187237 -0.046870  0.981196
			 0.302483 -0.031838  0.952623
			 0.500324 -0.032546  0.865226
			 0.597276 -0.041780  0.800947
			 0.479113 -0.015567  0.877615
			 0.227209 -0.011759 -0.973775
			 0.226756 -0.024504 -0.973643
			 0.277433 -0.032293 -0.960202
			-0.117707 -0.129178 -0.984611
			-0.176572 -0.149019 -0.972942
			-0.171624 -0.137799 -0.975478
			-0.090065 -0.173160 -0.980767
			-0.029840 -0.161018 -0.986500
			-0.400726 -0.104762 -0.910189
			-0.325126 -0.139696 -0.935296
			-0.256477 -0.203290 -0.944930
			 0.237214 -0.074288 -0.968613
			 0.196487 -0.079508 -0.977277
			 0.295908 -0.086597 -0.951283
			 0.002603 -0.117441 -0.993077
			 0.202321 -0.150528 -0.967681
			 0.368943 -0.182969 -0.911265
			-0.092485 -0.096287 -0.991048
			-0.619241 -0.085308 -0.780553
			-0.901920 -0.153023 -0.403887
			-0.975964 -0.141352 -0.165873
			-0.575385 -0.146828 -0.804595
			-0.591409 -0.038944  0.805431
			-0.700813 -0.085468  0.708207
			-0.525767 -0.052477  0.849008
			-0.591315 -0.066259  0.803714
			-0.337479 -0.068017  0.938873
			-0.200772 -0.038235  0.978892
			-0.397014 -0.057467  0.916012
			-0.184415 -0.061121  0.980946
			-0.983556 -0.134288 -0.120763
			-0.993803 -0.098828  0.050877
			-0.838460 -0.126116  0.530170
			-0.946107 -0.125498  0.298549
			-0.984182 -0.133408  0.116568
			 0.198939  0.004934 -0.979999
			 0.175566 -0.000875 -0.984467
			 0.233050  0.008894 -0.972424
			 0.136248 -0.065541 -0.988504
			 0.201973 -0.043540 -0.978423
			 0.294111  0.038734 -0.954986
			 0.990884  0.106602 -0.082372
			 0.992996  0.037748  0.111954
			 0.738194 -0.000607 -0.674588
			 0.993320  0.003797 -0.115334
			 0.886506 -0.038898 -0.461078
			 0.462375  0.055692 -0.884934
			 0.422199 -0.011111 -0.906435
			 0.245200 -0.007049 -0.969447
			 0.439266 -0.059945 -0.896355
			 0.903728 -0.012995  0.427909
			 0.697638 -0.030470  0.715803
			 0.864651 -0.018722  0.502024
			 0.919382  0.005843  0.393323
			 0.259846  0.004955 -0.965637
			 0.049099 -0.053847  0.997341
			 0.502138 -0.057149  0.862897
			 0.487088 -0.030935  0.872804
			 0.289381 -0.070634  0.954604
			 0.589283 -0.034778  0.807178
			 0.529526 -0.017759  0.848108
			 0.243739 -0.007104 -0.969815
			 0.187977 -0.028198 -0.981769
			 0.130422  0.046367 -0.990374
			-0.110143 -0.191551 -0.975283
			-0.082663 -0.150515 -0.985146
			 0.014301 -0.172537 -0.984899
			-0.120721 -0.202231 -0.971869
			-0.226559 -0.160541 -0.960676
			-0.216421 -0.160111 -0.963082
			-0.102425 -0.205570 -0.973268
			-0.219714 -0.200447 -0.954750
			-0.075940 -0.184264 -0.979939
			-0.044939 -0.160328 -0.986040
			-0.011245 -0.172518 -0.984942