<?xml version="1.0"?>
<VTKFile type="PolyData" version="0.1" byte_order="LittleEndian" compressor="vtkZLibDataCompressor">
	<PolyData>
		<Piece NumberOfPoints="774" NumberOfVerts="0" NumberOfLines="0" NumberOfStrips="0" NumberOfPolys="1554">
		<PointData Normals="Normals">
		<DataArray type="Float32" Name="Normals" NumberOfComponents="3" format="ascii">
			 0.203070 -0.108108 -0.973178
			 0.078143 -0.041259 -0.996088
			 0.222458 -0.083630 -0.971349
			 0.163027 -0.090617 -0.982451
			 0.173223 -0.133816 -0.975749
			 0.101613 -0.057891 -0.993138
			 0.219147 -0.175118 -0.959848
			 0.171342 -0.180717 -0.968495
			 0.134991 -0.098528 -0.985936
			 0.273497 -0.036769 -0.961170
			 0.176772 -0.004985 -0.984239
			-0.018948 -0.041383 -0.998964
			 0.036027 -0.004634 -0.999340
			 0.127160 -0.053228 -0.990453
			 0.058768 -0.133351 -0.989325
			 0.041444 -0.069776 -0.996701
			 0.063226 -0.081882 -0.994634
			 0.115127 -0.178340 -0.977211
			 0.116329 -0.033653 -0.992641
			 0.303526 -0.047998 -0.951613
			 0.157002 -0.164047 -0.973878
			 0.150629 -0.204659 -0.967174
			 0.294270 -0.192523 -0.936130
			 0.369395 -0.114121 -0.922238
			 0.045131 -0.029558 -0.998544
			 0.046372 -0.006386 -0.998904
			 0.135866 -0.019437 -0.990537
			 0.304571  0.026064 -0.952133
			 0.082243 -0.070713 -0.994101
			 0.231260 -0.087951 -0.968908
			 0.044105 -0.029529 -0.998590
			 0.126995 -0.039115 -0.991132
			 0.300881 -0.044564 -0.952620
			-0.126943 -0.088490 -0.987955
			 0.021040 -0.186667 -0.982198
			-0.069136 -0.156085 -0.985321
			 0.126105 -0.160299 -0.978980
			 0.696126 -0.138968 -0.704341
			 0.752208 -0.073471 -0.654817
			 0.746767  0.011530 -0.664986
			 0.138536 -0.121543 -0.982871
			 0.187306 -0.165897 -0.968191
			 0.412194 -0.162533 -0.896482
			 0.622440 -0.163418 -0.765417
			-0.193831 -0.069545 -0.978567
			-0.226215 -0.062588 -0.972065
			-0.175012  0.012743 -0.984484
			 0.050235  0.009699 -0.998690
			 0.254519  0.030082 -0.966600
			-0.221931 -0.076401 -0.972065
			-0.332803 -0.001487 -0.942995
			 0.290166 -0.011136 -0.956912
			 0.368530  0.028171 -0.929189
			 0.539095 -0.174632 -0.823942
			 0.636577 -0.113910 -0.762755
			 0.509908  0.019275 -0.860013
			 0.764279 -0.164245 -0.623619
			 0.134549 -0.057664 -0.989228
			 0.836797 -0.153219 -0.525638
			-0.121081 -0.092032 -0.988367
			-0.204711 -0.125742 -0.970712
			-0.047699 -0.158651 -0.986182
			 0.088147 -0.132494 -0.987257
			-0.136269 -0.133687 -0.981610
			-0.149563 -0.144327 -0.978162
			-0.072886 -0.153916 -0.985392
			-0.180918 -0.158592 -0.970627
			 0.859072 -0.170617 -0.482581
			 0.895220 -0.164869 -0.414004
			 0.949703 -0.064168 -0.306507
			 0.958279 -0.048094 -0.281761
			 0.944661 -0.102981 -0.311466
			 0.169884 -0.101815 -0.980190
			 0.105565  0.062377 -0.992454
			 0.192638  0.085866 -0.977506
			 0.345608 -0.168201 -0.923181
			 0.251911 -0.063636 -0.965656
			 0.544304 -0.126471 -0.829300
			 0.528525 -0.067900 -0.846198
			 0.801810 -0.050633 -0.595430
			-0.088944 -0.097642 -0.991239
			-0.182672 -0.084265 -0.979556
			-0.145116 -0.081988 -0.986012
			-0.159265  0.009862 -0.987187
			-0.364394  0.026262 -0.930875
			 0.186405  0.027173 -0.982097
			-0.002469 -0.113686 -0.993514
			-0.259372 -0.036442 -0.965090
			-0.109201 -0.071411 -0.991451
			-0.406622  0.006435 -0.913574
			-0.242212 -0.060669 -0.968325
			 0.379834  0.096603 -0.919997
			 0.391888  0.050978 -0.918599
			 0.971653 -0.106786 -0.210920
			 0.935913 -0.026117 -0.351263
			 0.980576 -0.152660 -0.123153
			 0.998388 -0.041662 -0.038538
			 0.650836  0.086571 -0.754266
			 0.917149  0.008273 -0.398457
			 0.968856 -0.090861 -0.230354
			 0.981580 -0.162720 -0.100112
			-0.049212 -0.079410 -0.995626
			-0.062420 -0.097416 -0.993284
			-0.127216 -0.105168 -0.986284
			-0.088451 -0.107180 -0.990297
			 0.021386  0.016731 -0.999631
			-0.243993 -0.168290 -0.955063
			-0.178236 -0.030540 -0.983514
			-0.203122  0.058482 -0.977405
			-0.205049 -0.162495 -0.965168
			-0.150633  0.003524 -0.988583
			-0.126522 -0.068679 -0.989583
			-0.161876 -0.110235 -0.980635
			-0.202234 -0.081914 -0.975905
			-0.233659 -0.141033 -0.962036
			 0.961054 -0.155912 -0.228182
			 0.917343 -0.063615 -0.392983
			 0.980921 -0.178150 -0.077819
			 0.984022 -0.165582  0.065450
			 0.990719 -0.132591  0.029938
			 0.189756  0.093200 -0.977398
			 0.205354  0.592752 -0.778765
			 0.341517  0.163729 -0.925505
			 0.204619  0.466787 -0.860373
			 0.246372  0.519725 -0.818038
			 0.471883 -0.026277 -0.881269
			 0.744419  0.045682 -0.666148
			 0.923595  0.042261 -0.381034
			 0.969893 -0.044307 -0.239469
			-0.045121 -0.099159 -0.994048
			-0.083996  0.038499 -0.995722
			-0.308219  0.072838 -0.948523
			-0.292889 -0.036101 -0.955465
			-0.375115  0.046085 -0.925832
			 0.328593  0.067653 -0.942045
			 0.086858  0.045329 -0.995189
			-0.506930 -0.131920 -0.851833
			-0.061570 -0.119137 -0.990967
			-0.220700 -0.152414 -0.963360
			-0.060960 -0.088143 -0.994241
			 0.087306 -0.070223 -0.993703
			-0.589759 -0.260885 -0.764279
			 0.289557  0.154121 -0.944671
			 0.153816  0.129812 -0.979535
			 0.457419  0.170066 -0.872838
			 0.958996 -0.106078  0.262821
			 0.994323 -0.049407  0.094241
			 0.960581 -0.070455  0.268925
			 0.981210 -0.154994  0.114911
			 0.962364 -0.145426  0.229578
			 0.927130  0.054963 -0.370689
			 0.928288  0.120270 -0.351876
			 0.991049 -0.017569  0.132337
			 0.996615 -0.058253  0.058006
			-0.127450  0.231913 -0.964351
			 0.034029  0.384835 -0.922358
			 0.163565  0.423325 -0.891090
			-0.236392  0.224546 -0.945356
			-0.241942 -0.010264 -0.970236
			-0.207860  0.388525 -0.897687
			-0.311316 -0.168854 -0.935185
			-0.119049 -0.043488 -0.991935
			-0.374915 -0.074670 -0.924047
			-0.191297 -0.089541 -0.977440
			-0.237146 -0.039865 -0.970656
			-0.528797 -0.115802 -0.840811
			-0.514215 -0.097786 -0.852068
			-0.531843 -0.063878 -0.844430
			-0.490293 -0.117997 -0.863533
			 0.996119 -0.022664  0.085054
			 0.964677 -0.130656  0.228751
			 0.943811 -0.210462  0.254809
			 0.958200 -0.135736  0.251852
			 0.929762 -0.192410  0.313880
			 0.863977 -0.147204  0.481534
			 0.181025  0.868766 -0.460951
			 0.355827  0.823770 -0.441351
			 0.137346  0.840326 -0.524393
			 0.413213  0.477282 -0.775537
			 0.643996  0.158503 -0.748429
			 0.552331  0.421808 -0.719033
			 0.311504  0.828556 -0.465254
			 0.184284  0.753795 -0.630739
			 0.899176  0.275271 -0.340159
			 0.991876  0.123507 -0.030477
			 0.938810  0.338260  0.064936
			-0.166012  0.085105 -0.982445
			-0.385225  0.115832 -0.915524
			-0.352442  0.156240 -0.922699
			-0.578337 -0.138896 -0.803887
			-0.585948  0.108150 -0.803099
			-0.591512  0.049052 -0.804803
			-0.584788 -0.038191 -0.810286
			-0.108214  0.116855 -0.987236
			-0.659014 -0.202886 -0.724250
			-0.854280 -0.140855 -0.500365
			-0.946781 -0.202674 -0.250057
			-0.976164 -0.117420 -0.182525
			-0.962293 -0.206570 -0.176980
			-0.970243 -0.208860 -0.122497
			 0.203757  0.188491 -0.960705
			 0.267945  0.181880 -0.946110
			-0.035072  0.123414 -0.991735
			-0.049880  0.143344 -0.988415
			 0.378463  0.197210 -0.904364
			 0.612013  0.189593 -0.767785
			 0.841479 -0.099005  0.531141
			 0.891514 -0.119028  0.437075
			 0.941840 -0.058769  0.330883
			 0.855581 -0.184788  0.483565
			 0.928895 -0.170089  0.328973
			 0.739445  0.184054 -0.647569
			 0.981770  0.033484  0.187098
			 0.906860 -0.069060  0.415735
			 0.853040 -0.063538  0.517964
			-0.011605  0.595960 -0.802930
			 0.165223  0.623588 -0.764094
			-0.275317  0.485436 -0.829791
			-0.345698  0.275043 -0.897131
			-0.414673 -0.102314 -0.904200
			-0.530828  0.054273 -0.845740
			-0.138451  0.773571 -0.618401
			-0.260266  0.739777 -0.620478
			-0.535713 -0.100719 -0.838372
			-0.730281 -0.159470 -0.664274
			-0.914769 -0.182833 -0.360236
			-0.784993 -0.141382 -0.603156
			-0.867686 -0.051968 -0.494390
			-0.792889 -0.177353 -0.582987
			-0.870379 -0.182099 -0.457472
			-0.751463 -0.044560 -0.658269
			 0.919222  0.016477  0.393395
			 0.939322  0.182449  0.290492
			 0.885479 -0.164683  0.434519
			 0.855161 -0.065514  0.514205
			 0.816619 -0.156051  0.555681
			 0.827229 -0.151242  0.541127
			 0.639153 -0.181769  0.747290
			 0.654962 -0.121392  0.745847
			 0.252372  0.961592 -0.107930
			 0.406766  0.880417 -0.243735
			 0.466687  0.876998  0.114363
			 0.237393  0.951301 -0.196649
			 0.495412  0.734953 -0.463046
			 0.774568  0.338843 -0.534069
			 0.624328  0.695701 -0.355268
			 0.199559  0.964046  0.175478
			 0.438368  0.877225 -0.195726
			 0.089809  0.989324 -0.114774
			-0.013817  0.862821 -0.505320
			 0.825595  0.555385 -0.099702
			 0.758835  0.642231  0.108206
			 0.816895  0.572639 -0.069046
			 0.916509  0.257182  0.306379
			 0.851182  0.483979  0.203110
			 0.762512  0.624185  0.170202
			-0.243117  0.128386 -0.961463
			-0.621850  0.207737 -0.755081
			-0.494342  0.257724 -0.830184
			-0.264732  0.168312 -0.949520
			-0.874069 -0.085738 -0.478176
			-0.832503  0.134331 -0.537489
			-0.810892 -0.020330 -0.584843
			-0.895349  0.030107 -0.444346
			-0.164147  0.210615 -0.963689
			-0.961158 -0.253216 -0.109803
			-0.921365 -0.201844 -0.332183
			-0.958417 -0.165182  0.232707
			-0.979526 -0.146299  0.138291
			-0.994475 -0.104921  0.003282
			-0.944962 -0.140834  0.295318
			 0.009485  0.184628 -0.982763
			 0.248516  0.265666 -0.931484
			 0.447113  0.279015 -0.849847
			 0.725254 -0.112461  0.679235
			 0.675384 -0.132369  0.725490
			 0.604048 -0.128137  0.786579
			 0.687977 -0.091750  0.719909
			 0.671839 -0.085444  0.735753
			 0.686118 -0.086093  0.722378
			 0.732063 -0.154351  0.663521
			 0.938961  0.209986 -0.272502
			 0.944463 -0.033474  0.326908
			 0.733190 -0.133064  0.666878
			 0.766822 -0.046411  0.640180
			 0.785937 -0.072417  0.614051
			 0.673276 -0.109135  0.731293
			-0.312219  0.654314 -0.688762
			-0.354366  0.828178 -0.434219
			-0.574368  0.304182 -0.759984
			-0.779125  0.079345 -0.621826
			-0.221114  0.923778 -0.312637
			-0.354561  0.906164 -0.230550
			-0.974965 -0.202584 -0.091667
			-0.965710 -0.259570  0.005332
			-0.964301 -0.232223  0.127267
			-0.952447 -0.234764  0.194243
			-0.986464 -0.042747 -0.158310
			-0.898075 -0.069758 -0.434276
			-0.952006 -0.134755 -0.274818
			-0.965847  0.086485 -0.244255
			 0.859657  0.137651  0.491978
			 0.766881 -0.156867  0.622323
			 0.751661 -0.059437  0.656866
			 0.642904 -0.118929  0.756657
			 0.558182 -0.158834  0.814374
			 0.542731 -0.201285  0.815431
			 0.557298 -0.208250  0.803773
			 0.651296 -0.203587  0.731004
			 0.545488 -0.115064  0.830183
			 0.276386  0.853475  0.441806
			 0.303736  0.864133  0.401271
			 0.417617  0.785314  0.457032
			 0.487171  0.869385  0.082671
			 0.065950  0.922285  0.380842
			 0.049363  0.938065  0.342924
			-0.102053  0.863848  0.493307
			-0.317512  0.908986  0.270058
			 0.887125  0.241385  0.393373
			 0.870103  0.407909  0.276641
			 0.538400  0.820827  0.190708
			-0.911972  0.167686 -0.374418
			-0.366125  0.359043 -0.858510
			-0.874575  0.266000 -0.405417
			-0.989571  0.068113 -0.126922
			-0.983378  0.014143 -0.181019
			-0.973672 -0.045546  0.223357
			-0.037922  0.262457 -0.964198
			-0.106343  0.351989 -0.929944
			-0.175872  0.324987 -0.929221
			-0.903078 -0.220604  0.368488
			-0.828760 -0.166561  0.534242
			-0.921867 -0.140738  0.361045
			-0.771817 -0.131483  0.622101
			-0.838519 -0.146531  0.524800
			-0.915850 -0.075999  0.394261
			-0.872800 -0.144432  0.466218
			-0.788730 -0.131975  0.600406
			-0.018604  0.194210 -0.980784
			 0.070647  0.257413 -0.963715
			 0.232879  0.342263 -0.910288
			 0.452504  0.333303 -0.827133
			 0.512946 -0.111079  0.851204
			 0.515538 -0.091627  0.851954
			 0.335051 -0.083798  0.938466
			 0.485897 -0.111424  0.866885
			 0.439190 -0.122693  0.889976
			 0.465149 -0.083551  0.881281
			 0.969776  0.243603  0.013840
			 0.631529  0.384225 -0.673455
			 0.864069  0.182418  0.469158
			 0.798080  0.033393  0.601626
			 0.777636 -0.030480  0.627975
			 0.495675 -0.137479  0.857558
			 0.502608 -0.147910  0.851767
			 0.574497 -0.132995  0.807629
			 0.599850 -0.075146  0.796576
			 0.408463 -0.107216  0.906456
			-0.194606  0.980774 -0.014523
			-0.236070  0.942946 -0.234786
			-0.435547  0.667759 -0.603653
			-0.318796  0.914344  0.249690
			-0.814359  0.274245 -0.511477
			-0.683874  0.498310 -0.532919
			-0.951235  0.229960 -0.205600
			-0.982376 -0.134087  0.130219
			-0.972105 -0.211303  0.101804
			-0.937649 -0.241823  0.249671
			-0.956409 -0.234798  0.173644
			-0.890411 -0.213910  0.401759
			-0.921835 -0.226448  0.314551
			-0.944671 -0.218604  0.244560
			-0.962950  0.189154  0.192221
			-0.956110  0.015661  0.292590
			-0.926588  0.339654  0.161463
			 0.800032  0.185849  0.570446
			 0.616133 -0.156690  0.771899
			 0.655068 -0.093707  0.749737
			 0.706793  0.058978  0.704957
			 0.413128 -0.210339  0.886049
			 0.373006 -0.144085  0.916573
			 0.572368 -0.136727  0.808518
			 0.431920 -0.106728  0.895575
			 0.295425  0.884757  0.360457
			 0.138424  0.852454  0.504144
			-0.230930  0.853481  0.467164
			 0.396377  0.898308  0.189545
			 0.096945  0.968332  0.230077
			 0.166565  0.958769  0.230255
			 0.084289  0.987281  0.134803
			-0.383038  0.769281  0.511360
			-0.284044  0.821739  0.494029
			 0.633724  0.704295  0.319941
			-0.991835  0.124652  0.026942
			-0.999356 -0.004230  0.035633
			-0.960369 -0.032434  0.276840
			-0.793585  0.349550 -0.498034
			-0.166168  0.425544 -0.889551
			-0.486748  0.415709 -0.768286
			-0.970514  0.189781  0.148612
			-0.958471  0.163568  0.233623
			-0.954058 -0.012426  0.299364
			-0.812784 -0.070303  0.578308
			-0.807640 -0.117021  0.577947
			-0.825833 -0.121928  0.550576
			-0.004474  0.238622 -0.971102
			 0.013555  0.342235 -0.939516
			-0.802688 -0.183651  0.567419
			-0.669409 -0.152027  0.727172
			-0.635444 -0.125494  0.761880
			-0.715036 -0.133966  0.686132
			-0.552255 -0.114053  0.825836
			-0.525216 -0.135297  0.840145
			-0.752467 -0.123273  0.646991
			-0.708426 -0.152353  0.689145
			-0.729503 -0.141548  0.669170
			-0.612385 -0.096877  0.784601
			-0.035424  0.280736 -0.959131
			 0.371789  0.407869 -0.833916
			 0.022554  0.347982 -0.937230
			 0.212904  0.450522 -0.867008
			 0.374990 -0.103452  0.921239
			 0.134480 -0.071412  0.988340
			 0.173025 -0.078445  0.981789
			 0.338091 -0.108983  0.934782
			 0.064423 -0.090717  0.993791
			 0.191662 -0.135177  0.972107
			 0.161360 -0.078514  0.983768
			 0.272841 -0.070220  0.959493
			 0.177567 -0.123621  0.976313
			 0.257274 -0.142566  0.955764
			 0.202847 -0.126286  0.971033
			 0.794158  0.350030 -0.496782
			 0.946339  0.109043  0.304224
			 0.983796  0.031451  0.176514
			 0.630616  0.037048  0.775211
			 0.885601  0.003534  0.464434
			 0.398932 -0.060469  0.914985
			 0.247131 -0.151123  0.957125
			 0.329815 -0.154906  0.931250
			 0.178531 -0.171151  0.968935
			 0.281304 -0.194159  0.939771
			 0.334145 -0.170605  0.926953
			-0.109371  0.933638  0.341114
			-0.080394  0.868309  0.489465
			-0.499487  0.865401 -0.039920
			-0.822442  0.563026 -0.081178
			-0.864937 -0.165600  0.473772
			-0.860921 -0.242959  0.446974
			-0.756575 -0.214443  0.617745
			-0.783742 -0.241527  0.572200
			-0.909250  0.221145  0.352646
			-0.889027  0.255372  0.380020
			-0.863633  0.181060  0.470484
			-0.784643 -0.010553  0.619858
			-0.907585  0.355537  0.223345
			-0.578608  0.786189  0.217071
			 0.655205  0.058777  0.753161
			 0.577099  0.108961  0.809373
			 0.668034  0.296385  0.682559
			 0.283436 -0.216113  0.934323
			 0.154761 -0.202216  0.967036
			 0.304308 -0.141200  0.942051
			 0.446399 -0.052229  0.893308
			-0.283137  0.907323  0.310804
			-0.254672  0.936043  0.242830
			 0.390707  0.919383  0.045632
			 0.422706  0.894048 -0.148318
			-0.045313  0.938469 -0.342378
			-0.215088  0.976446  0.017059
			 0.094153  0.995539 -0.006045
			 0.072813  0.991684 -0.106115
			-0.042515  0.909907  0.412628
			 0.570829  0.382388  0.726591
			 0.505974  0.791895  0.341894
			-0.902589 -0.022758  0.429902
			-0.799370 -0.073031  0.596384
			-0.943539  0.257360 -0.208564
			-0.826658  0.234670 -0.511436
			 0.026623  0.456389 -0.889382
			-0.222110  0.507336 -0.832633
			-0.498422  0.353196 -0.791725
			-0.992833  0.085833  0.083155
			-0.938671 -0.010633  0.344649
			-0.881369  0.115791  0.458020
			-0.897767  0.172527  0.405276
			-0.847336  0.054539  0.528249
			-0.729717 -0.104489  0.675718
			-0.689261 -0.115786  0.715201
			-0.588352 -0.095403  0.802957
			-0.580487 -0.134690  0.803052
			 0.048674  0.304072 -0.951405
			 0.094123  0.306547 -0.947191
			 0.200694  0.304921 -0.930992
			-0.671978 -0.169896  0.720819
			-0.468433 -0.115179  0.875959
			-0.431873 -0.110814  0.895101
			-0.387832 -0.130977  0.912377
			-0.389999 -0.141343  0.909903
			-0.380696 -0.110276  0.918101
			-0.549174 -0.199245  0.811609
			-0.369934 -0.204477  0.906277
			-0.528076 -0.199175  0.825509
			-0.590189 -0.189097  0.784806
			-0.537968 -0.146908  0.830066
			-0.519381 -0.157088  0.839980
			-0.576050 -0.145033  0.804445
			-0.112114  0.312553 -0.943261
			-0.038510  0.292489 -0.955493
			 0.514469  0.438161 -0.737114
			-0.066493  0.358724 -0.931072
			 0.263002  0.466146 -0.844712
			 0.038207  0.388661 -0.920588
			 0.011378 -0.095579  0.995357
			-0.074064 -0.083770  0.993729
			 0.212152 -0.100045  0.972102
			 0.056464 -0.143523  0.988035
			-0.089457 -0.166245  0.982018
			-0.188549 -0.140971  0.971893
			 0.052459 -0.109642  0.992586
			-0.017468 -0.150484  0.988458
			-0.083914 -0.129788  0.987985
			 0.010064 -0.159896  0.987082
			 0.799428  0.255816 -0.543575
			 0.964390  0.205218 -0.166848
			 0.931601 -0.130633  0.339197
			 0.944805 -0.057748  0.322505
			 0.690890 -0.065594  0.719978
			 0.994022  0.013278 -0.108370
			 0.283950 -0.068737  0.956372
			 0.117837 -0.185185  0.975613
			 0.192460 -0.080657  0.977985
			-0.057133 -0.143331  0.988024
			-0.095021 -0.184362  0.978254
			 0.062831 -0.221591  0.973113
			 0.221249 -0.202730  0.953913
			 0.039017 -0.227756  0.972936
			 0.026142 -0.247194  0.968613
			 0.014795  0.976562  0.214726
			-0.602854  0.779544  0.169935
			-0.707496 -0.176386  0.684351
			-0.602099 -0.218428  0.767962
			-0.595319 -0.199572  0.778310
			-0.842999  0.070638  0.533257
			-0.929271  0.045784  0.366549
			-0.935643  0.214130  0.280572
			-0.638393 -0.139675  0.756932
			-0.761129  0.622593  0.181825
			-0.148989  0.987431  0.052745
			 0.342613  0.077197  0.936300
			 0.387295  0.299885  0.871821
			 0.277867 -0.095827  0.955828
			 0.098920 -0.267910  0.958352
			 0.088158 -0.286801  0.953925
			 0.132963 -0.170959  0.976265
			-0.013427 -0.224989  0.974269
			-0.116393  0.980479  0.158473
			 0.303518  0.925125 -0.228078
			 0.333284  0.889130 -0.313640
			 0.455460  0.818457 -0.350264
			-0.212218  0.948268 -0.236116
			-0.317017  0.831043 -0.457021
			-0.252973  0.814936 -0.521425
			-0.015743  0.935809 -0.352156
			-0.110151  0.990443 -0.083009
			 0.034868  0.991954 -0.121699
			 0.221021  0.960323 -0.170085
			 0.036696  0.960497 -0.275861
			 0.491160  0.804163  0.334789
			 0.488568  0.572045  0.658837
			-0.754993 -0.031329  0.654984
			-0.992310  0.029390 -0.120235
			-0.787830  0.184281 -0.587677
			-0.962992 -0.009278 -0.269370
			-0.065255  0.362329 -0.929763
			-0.252047  0.398043 -0.882062
			-0.315072  0.292768 -0.902783
			-0.963688 -0.111893  0.242458
			-0.893941 -0.189443  0.406177
			-0.860675 -0.019035  0.508799
			-0.814409  0.160719  0.557590
			-0.604183  0.068228  0.793920
			-0.703527  0.089285  0.705038
			-0.489105 -0.190820  0.851096
			-0.411949 -0.005198  0.911192
			-0.240252 -0.116720  0.963668
			-0.262308 -0.232628  0.936525
			-0.353463 -0.156704  0.922230
			-0.275999 -0.147725  0.949738
			 0.083205  0.244575 -0.966054
			 0.247974  0.090059 -0.964571
			 0.175863  0.183866 -0.967091
			-0.226473 -0.110259  0.967757
			-0.329667 -0.103764  0.938378
			-0.317995 -0.153750  0.935543
			-0.190078 -0.110462  0.975535
			-0.295643 -0.115251  0.948321
			-0.315637 -0.119394  0.941339
			-0.289896 -0.123885  0.949006
			-0.217117 -0.081265  0.972757
			-0.610221 -0.234260  0.756804
			-0.564030 -0.258114  0.784377
			-0.157673 -0.250939  0.955075
			-0.261925 -0.304223  0.915884
			-0.629155 -0.157367  0.761183
			-0.405739 -0.249065  0.879399
			-0.612194 -0.228615  0.756937
			-0.079310  0.218578 -0.972591
			 0.383602  0.307477 -0.870809
			-0.059116  0.162237 -0.984979
			-0.127091 -0.102395  0.986592
			 0.643118  0.060564 -0.763368
			 0.849843 -0.110508  0.515321
			 0.809073 -0.133673  0.572304
			 0.971962 -0.207268  0.111037
			 0.994093 -0.108444 -0.004335
			 0.918546 -0.052933  0.391755
			 0.944927 -0.197109  0.261267
			 0.451918 -0.201545  0.868994
			 0.259446 -0.199433  0.944941
			 0.285947 -0.083871  0.954568
			 0.701962 -0.140849 -0.698149
			 0.079580 -0.112823  0.990423
			 0.076273 -0.147562  0.986107
			-0.012757 -0.161284  0.986826
			 0.005530 -0.229950  0.973187
			 0.017683 -0.223331  0.974582
			-0.197773 -0.175159  0.964472
			-0.081750 -0.233594  0.968891
			-0.323592 -0.211519  0.922252
			-0.037312 -0.251121  0.967236
			-0.063619 -0.228792  0.971394
			-0.808803  0.084153  0.582027
			-0.835101  0.404336  0.372985
			-0.607621 -0.197127  0.769375
			-0.659920 -0.072206  0.747859
			-0.503271  0.717777  0.481159
			-0.137787  0.990321  0.016738
			 0.191618  0.033252  0.980906
			 0.439802  0.646305  0.623589
			 0.308910  0.493430  0.813082
			 0.196716  0.242038  0.950116
			-0.030827 -0.269789  0.962426
			-0.008356 -0.294338  0.955665
			-0.056722 -0.260365  0.963843
			-0.176587 -0.320268  0.930723
			-0.090592 -0.315072  0.944734
			-0.065745 -0.168315  0.983538
			-0.032085 -0.050350  0.998216
			 0.358280  0.897423 -0.257423
			 0.502919  0.864291 -0.008513
			 0.399162  0.903072  0.158524
			 0.169257  0.889684  0.424046
			-0.131858  0.946423 -0.294782
			-0.410014  0.904537 -0.117053
			-0.268535  0.960322  0.075300
			-0.465026  0.870004 -0.163840
			-0.979576 -0.197503  0.037741
			-0.927828 -0.180159 -0.326615
			-0.500370  0.090985 -0.861018
			 0.010945 -0.000285 -0.999940
			-0.931453 -0.239420  0.273997
			-0.465700 -0.055422  0.883205
			-0.936223 -0.266149  0.229458
			-0.821510 -0.263379  0.505720
			-0.562378 -0.158234  0.811599
			-0.294091 -0.020693  0.955553
			-0.206050 -0.088752  0.974508
			-0.126451 -0.229598  0.965036
			-0.094906 -0.170179  0.980832
			 0.076538  0.072862 -0.994401
			 0.305079 -0.035426 -0.951668
			 0.221748 -0.165123 -0.961021
			-0.586008 -0.031482  0.809694
			-0.644973  0.319122  0.694385
			-0.627832  0.162434  0.761211
			-0.228700 -0.206391  0.951367
			-0.284180 -0.105140  0.952989
			-0.045035 -0.029003 -0.998564
			 0.084300 -0.087487 -0.992592
			-0.114043 -0.153678 -0.981518
			 0.740035 -0.328154  0.587080
			 0.866343 -0.485680 -0.116466
			 0.805279 -0.343494 -0.483258
			 0.860367 -0.478911  0.174390
			 0.317520 -0.361055  0.876824
			 0.061489 -0.393433  0.917295
			 0.014112 -0.274695  0.961428
			 0.049793 -0.139140  0.989020
			 0.209126 -0.331192 -0.920097
			-0.068622 -0.186532  0.980050
			-0.078602 -0.232372  0.969446
			-0.509820  0.690859  0.512638
			-0.000116  0.191978  0.981399
			 0.083447  0.476157  0.875392
			-0.246892  0.069640  0.966537
			-0.135071  0.706985  0.694210
			-0.567300  0.685980  0.455634
			-0.468629  0.741851  0.479629
			-0.330046  0.724283  0.605379
			-0.441246 -0.481393 -0.757340
			-0.894798 -0.367963 -0.252862
			-0.478520 -0.066573 -0.875549
			-0.514593 -0.274044 -0.812462
			-0.980769 -0.155266  0.118255
			-0.085669 -0.109010 -0.990342
			-0.189945 -0.171194  0.966754
			-0.149179 -0.204192  0.967498
			-0.932566 -0.220706  0.285672
			-0.512956 -0.342077  0.787312
			 0.165258 -0.159917 -0.973199
			 0.069228 -0.095412 -0.993028
			-0.084887 -0.351534 -0.932319
			 0.139100 -0.362009 -0.921738
			 0.246933 -0.485419 -0.838685
			-0.521593  0.206731  0.827770
			-0.403124  0.410693  0.817816
			-0.526015  0.526925  0.667576
			 0.070432 -0.320136 -0.944750
			-0.079511 -0.291708 -0.953197
			-0.097746 -0.491876 -0.865161
			 0.536971 -0.699067  0.472195
			 0.228261 -0.565950  0.792211
			 0.493376 -0.722349 -0.484553
			 0.446982 -0.894036 -0.030103
			 0.353969 -0.544351 -0.760518
			-0.018418 -0.620787  0.783763
			-0.074925 -0.438850  0.895431
			 0.052422 -0.531162 -0.845647
			-0.059319 -0.486632 -0.871591
			-0.096535 -0.272952  0.957172
			-0.135242 -0.268508  0.953736
			-0.095312 -0.333288  0.937995
			-0.047436 -0.440779  0.896362
			-0.132636  0.270127  0.953645
			-0.082469  0.438002  0.895183
			-0.219292  0.492383  0.842301
			-0.463327 -0.663298 -0.587677
			 0.154145 -0.583437 -0.797396
			-0.839993 -0.490371 -0.232265
			-0.975248 -0.185608  0.120169
			-0.867536 -0.285556  0.407234
			-0.370208 -0.663266  0.650403
			-0.186025 -0.435781  0.880619
			 0.258977 -0.382265 -0.887020
			 0.165187 -0.524790 -0.835050
			 0.066636 -0.696858 -0.714107
			 0.037013 -0.895989 -0.442532
			 0.271210 -0.899999 -0.341245
			-0.011881 -0.657850 -0.753055
			 0.039554 -0.687880 -0.724746
			-0.110293 -0.697255 -0.708288
			-0.080762 -0.692079 -0.717290
			 0.036933 -0.899820  0.434695
			 0.020135 -0.880197 -0.474181
			-0.050801 -0.998691 -0.005926
			-0.059846 -0.766987  0.638866
			-0.027393 -0.496117  0.867823
			-0.009666 -0.600199  0.799793
			-0.032001 -0.543123  0.839043
			-0.291110 -0.913390 -0.284559
			-0.764193 -0.628703 -0.144021
			-0.917159 -0.384437 -0.105011
			-0.787120 -0.545455  0.287961
			-0.261238 -0.957025  0.125926
			 0.090723 -0.928064  0.361202
			 0.023325 -0.743446  0.668389
			-0.056633 -0.562417  0.824912
			-0.131348 -0.968821  0.210078
			 0.135382 -0.985482  0.102460
			 0.191276 -0.932937  0.305027
			-0.025287 -0.959003  0.282264
			-0.043601 -0.797078  0.602300
			 0.140279 -0.855136  0.499063
		</DataArray>
	</PointData>
	<Points>
		<DataArray type="Float32" NumberOfComponents="3" format="ascii">
			 0.002362 -0.010009 -0.002237
			 0.001977 -0.013636 -0.001983
			 0.001564 -0.013070 -0.002118
			 0.001052 -0.011432 -0.002415
			 0.001189 -0.009867 -0.002552
			 0.002746 -0.011089 -0.002108
			 0.001760 -0.009401 -0.002492
			 0.002720 -0.009061 -0.002289
			 0.003305 -0.010186 -0.002058
			 0.001283 -0.013627 -0.002152
			 0.001673 -0.014449 -0.002007
			 0.002465 -0.014693 -0.002023
			 0.002665 -0.012119 -0.002083
			 0.000233 -0.012396 -0.002478
			 0.000527 -0.009505 -0.002659
			 0.000308 -0.011510 -0.002509
			-0.000012 -0.009766 -0.002673
			 0.000900 -0.008776 -0.002758
			 0.003005 -0.011685 -0.001998
			 0.003759 -0.011169 -0.002033
			 0.001364 -0.007520 -0.002952
			 0.002170 -0.006949 -0.002907
			 0.003681 -0.007991 -0.002446
			 0.003915 -0.009146 -0.002079
			 0.000545 -0.013978 -0.002392
			 0.000434 -0.015518 -0.002382
			 0.002068 -0.015890 -0.001932
			 0.001410 -0.015632 -0.002134
			 0.003142 -0.015784 -0.001942
			 0.003269 -0.016936 -0.001833
			 0.002711 -0.013673 -0.002055
			 0.003237 -0.014750 -0.001987
			 0.003876 -0.013242 -0.002007
			-0.000211 -0.011331 -0.002510
			 0.000330 -0.007659 -0.003014
			-0.000655 -0.008674 -0.002771
			 0.000930 -0.007169 -0.003075
			 0.004266 -0.009697 -0.001841
			 0.004281 -0.010237 -0.001717
			 0.004336 -0.011277 -0.001685
			 0.001280 -0.006233 -0.003114
			 0.002701 -0.006265 -0.003020
			 0.004088 -0.007530 -0.002305
			 0.004562 -0.008697 -0.001787
			-0.000307 -0.013421 -0.002331
			-0.000047 -0.014977 -0.002355
			 0.000169 -0.016534 -0.002371
			 0.000653 -0.017588 -0.002402
			 0.000909 -0.017104 -0.002337
			-0.001010 -0.014983 -0.002019
			-0.000435 -0.016255 -0.002223
			 0.001767 -0.017091 -0.002000
			 0.001370 -0.016652 -0.002174
			 0.003295 -0.017909 -0.001670
			 0.003790 -0.013860 -0.001930
			 0.003236 -0.018958 -0.001555
			 0.003845 -0.016766 -0.001453
			 0.003370 -0.014246 -0.001976
			 0.004260 -0.012811 -0.001721
			-0.001123 -0.011309 -0.002325
			-0.000733 -0.010790 -0.002470
			-0.000335 -0.006901 -0.003150
			 0.000599 -0.006075 -0.003288
			-0.001116 -0.010253 -0.002459
			-0.001264 -0.007558 -0.003003
			-0.001709 -0.009641 -0.002492
			-0.001924 -0.009148 -0.002568
			 0.004935 -0.008298 -0.001341
			 0.004760 -0.009191 -0.001293
			 0.004654 -0.010916 -0.001039
			 0.004583 -0.011386 -0.001232
			 0.004432 -0.012347 -0.001519
			 0.000891 -0.005580 -0.003279
			 0.002476 -0.005720 -0.003096
			 0.001890 -0.005241 -0.003141
			 0.003477 -0.006308 -0.002804
			 0.003089 -0.005847 -0.002991
			 0.004409 -0.007050 -0.002234
			 0.004266 -0.006498 -0.002377
			 0.004798 -0.006617 -0.001956
			-0.001231 -0.012273 -0.002245
			-0.000868 -0.013421 -0.002155
			-0.001081 -0.013936 -0.002086
			 0.000038 -0.018585 -0.002369
			-0.000473 -0.018071 -0.002200
			 0.000846 -0.018632 -0.002392
			-0.002525 -0.013854 -0.002031
			-0.001123 -0.016022 -0.001942
			-0.001377 -0.015493 -0.001931
			-0.000966 -0.017705 -0.001938
			-0.001065 -0.017060 -0.001923
			 0.002357 -0.019015 -0.001862
			 0.001757 -0.017731 -0.002050
			 0.003920 -0.017612 -0.000796