<?xml version="1.0"?>
<VTKFile type="PolyData" version="0.1" byte_order="LittleEndian" compressor="vtkZLibDataCompressor">
	<PolyData>
		<Piece NumberOfPoints="547" NumberOfVerts="0" NumberOfLines="0" NumberOfStrips="0" NumberOfPolys="1086">
		<PointData Normals="Normals">
		<DataArray type="Float32" Name="Normals" NumberOfComponents="3" format="ascii">
			 0.066519  0.214991  0.974348
			 0.050343  0.132615  0.989888
			 0.175221  0.025703  0.984194
			-0.092429  0.270670  0.958225
			 0.212887  0.224886  0.950844
			 0.487371  0.074778  0.869987
			 0.414941 -0.076918  0.906591
			 0.538340  0.017077  0.842555
			-0.106870  0.328405  0.938472
			 0.040286  0.108877  0.993239
			 0.450246 -0.499543  0.740091
			 0.263089 -0.342234  0.902031
			 0.118679  0.164489  0.979213
			-0.113661  0.150279  0.982088
			-0.162427  0.262591  0.951138
			 0.832015  0.004107  0.554738
			 0.682393  0.052320  0.729110
			 0.916124 -0.086541  0.391442
			 0.796891 -0.146523  0.586085
			 0.622203 -0.533077  0.573318
			 0.746504 -0.179822  0.640621
			 0.716098 -0.366185  0.594233
			 0.817175 -0.161738  0.553232
			-0.054888  0.429815  0.901247
			-0.219637  0.352702  0.909594
			 0.187989 -0.078116  0.979060
			 0.287283 -0.628359  0.722934
			 0.424837 -0.812954  0.398270
			 0.492234 -0.700616  0.516569
			 0.134835  0.087255  0.987019
			 0.672592  0.019895  0.739746
			-0.181749  0.065520  0.981160
			 0.065058  0.102261  0.992628
			-0.204577  0.112974  0.972309
			-0.213428  0.214374  0.953148
			-0.268875  0.257054  0.928240
			 0.976348 -0.081131  0.200403
			 0.971461 -0.123280  0.202647
			 0.870734 -0.340901  0.354413
			 0.580458 -0.690204  0.432074
			 0.753016 -0.599098  0.272118
			 0.046913  0.159169  0.986136
			-0.225121  0.434127  0.872270
			-0.158239  0.329757  0.930710
			-0.314555  0.440485  0.840850
			-0.402129  0.368832  0.838007
			 0.338364 -0.580360  0.740737
			 0.360139 -0.868092  0.341638
			 0.370392 -0.771467  0.517348
			 0.461225 -0.663640  0.588943
			 0.578106  0.061603  0.813633
			 0.947582  0.024058  0.318606
			-0.174624  0.001339  0.984634
			-0.251295  0.031699  0.967391
			-0.266632 -0.007788  0.963767
			-0.052945  0.046520  0.997513
			 0.148645  0.089175  0.984862
			 0.624563  0.187650  0.758095
			-0.333654  0.112943  0.935905
			-0.324391  0.198703  0.924817
			-0.264799  0.214098  0.940236
			-0.436132  0.271066  0.858086
			-0.399552  0.205656  0.893344
			 0.924205 -0.246720  0.291503
			 0.941057 -0.048547  0.334745
			 0.870555 -0.053039  0.489204
			 0.953721 -0.123272  0.274263
			 0.847837 -0.500858  0.174111
			 0.647065 -0.743056  0.170805
			 0.557510 -0.758299  0.337884
			 0.360529 -0.799085  0.481126
			 0.790409 -0.612574  0.002648
			-0.126733 -0.460718  0.878452
			-0.298541  0.419462  0.857278
			-0.405722  0.100883  0.908412
			-0.419361  0.417428  0.806158
			-0.671989  0.315638  0.669928
			-0.560308  0.263393  0.785289
			 0.172104 -0.982089  0.076693
			 0.067448 -0.922287  0.380575
			 0.128912 -0.982440 -0.134886
			 0.961604  0.005297  0.274389
			 0.938920  0.194128  0.284154
			 0.806164  0.425023  0.411649
			-0.135526 -0.117868  0.983738
			-0.266861 -0.168712  0.948853
			-0.266282  0.037300  0.963173
			-0.295210  0.067259  0.953062
			-0.343242  0.078218  0.935984
			-0.318344  0.023840  0.947675
			 0.388222  0.118675  0.913893
			-0.454724  0.154849  0.877068
			-0.501214  0.150984  0.852049
			-0.365834  0.033731  0.930068
			-0.390556  0.154916  0.907451
			-0.407333  0.147978  0.901212
			-0.490936  0.206268  0.846425
			 0.906359 -0.377678  0.189404
			 0.924510 -0.104768  0.366477
			 0.881447 -0.162743  0.443357
			 0.843184 -0.078310  0.531891
			 0.138354  0.044395  0.989387
			 0.138354  0.044395  0.989387
			 0.915861 -0.094957  0.390105
			 0.895150 -0.021036  0.445268
			 0.600483 -0.792476  0.106777
			 0.129575 -0.911187  0.391086
			-0.203920 -0.782034  0.588931
			 0.798769 -0.593857 -0.096448
			 0.845095 -0.533259 -0.038074
			-0.146013 -0.964533  0.219902
			-0.571874 -0.696687  0.433115
			-0.635409  0.044330  0.770903
			-0.769821  0.065906  0.634848
			-0.723369  0.171830  0.668739
			-0.891676 -0.233902  0.387560
			-0.604904  0.067731  0.793413
			-0.666368  0.127892  0.734573
			-0.579196  0.244016  0.777810
			-0.208937 -0.977258 -0.036238
			-0.224269 -0.908463  0.352701
			 0.034165 -0.970602  0.238255
			 0.856653  0.157655  0.491213
			 0.887573  0.284257  0.362508
			 0.839245  0.506338  0.198214
			-0.029404 -0.167068  0.985507
			-0.339014 -0.131218  0.931585
			-0.374410  0.020559  0.927035
			-0.264013 -0.185152  0.946581
			-0.243157  0.414492  0.876967
			-0.224613  0.641468  0.733531
			-0.355891  0.309391  0.881827
			-0.460151  0.109820  0.881023
			-0.534771  0.301777  0.789273
			 0.896367  0.132197  0.423144
			-0.529883  0.064860  0.845587
			-0.697978  0.186616  0.691376
			-0.651034  0.135296  0.746893
			-0.685109  0.238554  0.688271
			-0.606551  0.289444  0.740485
			-0.669034  0.287536  0.685359
			-0.741358  0.291837  0.604334
			 0.933534 -0.356825  0.034490
			 0.967520 -0.232183  0.099985
			 0.875977 -0.105036  0.470779
			 0.975600 -0.180074  0.125614
			 0.972160 -0.195620  0.128990
			 0.870663 -0.096786  0.482265
			 0.152963 -0.934936  0.320151
			 0.287520 -0.905269  0.312762
			 0.632941 -0.769891  0.081574
			 0.774341 -0.616842 -0.141075
			 0.768771 -0.635406 -0.072465
			-0.243044 -0.801770  0.545981
			 0.804217 -0.565933 -0.181534
			 0.882445 -0.448493 -0.141930
			 0.893644 -0.428833 -0.132293
			-0.762976 -0.603403  0.231889
			-0.862015 -0.072113  0.501726
			-0.903936 -0.326287  0.276471
			-0.802048 -0.544422  0.245608
			-0.654123 -0.740057  0.156330
			-0.756576 -0.076656  0.649397
			-0.841755 -0.153684  0.517522
			-0.700714 -0.706623  0.098411
			-0.245015 -0.955017  0.167065
			 0.259899 -0.962615  0.076317
			-0.397010 -0.800466  0.449040
			 0.713416  0.244764  0.656604
			 0.722552  0.100467  0.683977
			 0.915913  0.011801  0.401203
			 0.600836  0.232055  0.764949
			 0.962324  0.050254 -0.267221
			 0.685439  0.462215  0.562611
			 0.127887  0.036269  0.991125
			-0.265632  0.305322  0.914450
			-0.122575  0.241113  0.962725
			 0.144941  0.983197  0.110973
			-0.054969  0.783947  0.618389
			 0.089330  0.924213  0.371283
			 0.172025  0.974541 -0.143797
			-0.409917  0.573293  0.709439
			-0.595382  0.577944  0.558123
			-0.710719  0.507278  0.487389
			 0.926947  0.349432  0.136627
			-0.848265  0.016466  0.529316
			-0.901817  0.260769  0.344566
			-0.949443  0.124191  0.288330
			-0.877315  0.402727  0.261018
			-0.813905  0.490882  0.310796
			 0.949850 -0.297008 -0.097834
			 0.962951 -0.255671 -0.085776
			 0.961060 -0.240535 -0.136041
			 0.982775 -0.177853 -0.050223
			 0.987656 -0.094883  0.124635
			-0.132069 -0.891144  0.434074
			-0.053624 -0.976695  0.207825
			 0.441395 -0.897091  0.019938
			 0.181576 -0.978963  0.093067
			 0.627604 -0.755673 -0.187273
			 0.695273 -0.634257 -0.338102
			 0.748717 -0.547936 -0.373081
			 0.836518 -0.436793 -0.330832
			 0.929600 -0.335161 -0.153331
			-0.932949 -0.317905  0.168948
			-0.934159 -0.327638  0.141421
			-0.965501 -0.156460  0.208152
			-0.929898 -0.355310  0.095101
			-0.902987 -0.420038 -0.090459
			-0.794244 -0.606853 -0.030105
			-0.456495 -0.873918  0.166974
			-0.499478 -0.862272  0.083716
			-0.433544 -0.869398  0.237037
			-0.262837 -0.901399  0.344087
			-0.533589 -0.716804  0.448860
			 0.593664  0.158035  0.789043
			 0.930765  0.031637  0.364248
			 0.686084  0.587391  0.429255
			 0.841854  0.209681  0.497309
			 0.102251  0.561293  0.821276
			 0.984660  0.169858  0.039908
			 0.941461  0.314916 -0.120332
			 0.641374  0.440465  0.628196
			 0.392604  0.588483  0.706788
			 0.406679  0.891446 -0.199842
			 0.444803  0.838604  0.314474
			 0.128484  0.840720  0.526006
			 0.157726  0.919096 -0.361087
			 0.555170  0.829152 -0.065518
			-0.386043  0.864471  0.321965
			-0.664796  0.706958  0.241364
			-0.999087 -0.037679  0.020148
			-0.949965  0.312353  0.001282
			-0.982435  0.130765 -0.133127
			-0.979843  0.016754 -0.199066
			-0.901331  0.424323 -0.086903
			-0.744205  0.662863  0.082285
			-0.853622  0.518783 -0.046850
			 0.958569 -0.279437 -0.055321
			 0.979338 -0.142280 -0.143711
			 0.989003 -0.094742 -0.113564
			 0.864122 -0.327800 -0.381891
			 0.851899 -0.386342 -0.353566
			 0.922914 -0.287992 -0.255520
			 0.967703 -0.162496 -0.192732
			 0.959679 -0.178613 -0.217057
			-0.205681 -0.968313  0.141650
			 0.453065 -0.850828 -0.266127
			-0.095551 -0.988971  0.113167
			 0.565311 -0.671017 -0.479749
			 0.561558 -0.573647 -0.596307
			 0.708101 -0.446076 -0.547365
			 0.774773 -0.398844 -0.490562
			-0.908546 -0.401334 -0.116086
			-0.978615 -0.086625 -0.186573
			-0.933524 -0.343193 -0.103689
			-0.900536 -0.430038 -0.064055
			-0.901350 -0.423407 -0.091075
			-0.924494 -0.378378  0.046278
			-0.715427 -0.687377  0.125206
			-0.510319 -0.844586  0.162014
			-0.598640 -0.735714  0.316790
			-0.601618 -0.595627  0.532245
			-0.659744 -0.546092  0.516257
			 0.861665  0.400879  0.311175
			 0.996717 -0.080354 -0.009959
			 0.785010  0.608708 -0.115039
			 0.666995  0.370833  0.646220
			 0.865646  0.406849  0.291772
			 0.685025  0.579838  0.441053
			 0.537019  0.838808 -0.089507
			 0.501688  0.695769  0.514019
			 0.245837  0.964368  0.097773
			 0.443198  0.689460  0.572906
			 0.024361  0.951726  0.305980
			-0.047943  0.971361  0.232720
			-0.551311  0.834229  0.010829
			-0.345596  0.920368  0.182993
			-0.964654  0.168439 -0.202658
			-0.899476  0.389952 -0.197181
			-0.637157  0.768737  0.055455
			-0.742492  0.668961 -0.034585
			-0.915480  0.372474 -0.152181
			-0.908472  0.364077 -0.205248
			-0.820990  0.542985 -0.176475
			-0.878342  0.444552 -0.175754
			 0.980605 -0.117266 -0.157042
			 0.956880 -0.192378 -0.217648
			 0.765143 -0.410380 -0.496130
			 0.738687 -0.509397 -0.441425
			 0.736175 -0.504772 -0.450834
			 0.824631 -0.416413 -0.382864
			 0.934848 -0.262690 -0.238860
			 0.966235 -0.080827 -0.244657
			 0.965266  0.214944 -0.148526
			-0.105986 -0.941301  0.320499
			 0.173635 -0.949513 -0.261298
			 0.394845 -0.746347 -0.535783
			 0.379248 -0.579695 -0.721197
			 0.448130 -0.666092 -0.596239
			 0.564030 -0.497880 -0.658776
			 0.457114 -0.550994 -0.698178
			 0.420249 -0.530552 -0.736142
			 0.456432 -0.536886 -0.709524
			 0.610092 -0.499844 -0.614772
			 0.703620 -0.429789 -0.565862
			-0.981055  0.020879 -0.192598
			-0.991198 -0.071320 -0.111534
			-0.952985 -0.292278  0.079954
			-0.989560  0.012516 -0.143573
			-0.916419 -0.399009  0.031118
			-0.898132 -0.366160  0.243486
			-0.878682 -0.422789  0.221737
			-0.861130 -0.316209  0.398079
			-0.793659 -0.554428  0.250430
			-0.601759 -0.683000  0.414002
			-0.048017 -0.973718  0.222637
			-0.594832 -0.615811  0.516674
			-0.661725 -0.695780  0.279303
			-0.713907 -0.558462  0.422442
			-0.966702  0.255884 -0.003181
			-0.966702  0.255884 -0.003181
			 0.870256  0.178005  0.459313
			 0.592806  0.759732  0.267184
			 0.454702  0.663589  0.594051
			 0.802940  0.564480  0.191440
			 0.748399 -0.299052  0.592002
			 0.671651  0.219910  0.707478
			 0.805277  0.502934  0.313983
			 0.036772  0.717203  0.695894
			 0.415347  0.785269  0.459173
			 0.311614  0.743645  0.591514
			 0.010015  0.746389  0.665434
			-0.033350  0.938864  0.342669
			-0.532537  0.815048  0.228256
			-0.308128  0.924186  0.225694
			-0.101157  0.918965  0.381143
			-0.925474  0.341468 -0.164006
			-0.993405  0.032326 -0.110006
			-0.961719  0.141630 -0.234599
			-0.949225  0.226255 -0.218586
			-0.984074  0.062856 -0.166274
			-0.918996  0.328701 -0.217719
			-0.618341  0.775694  0.126302
			-0.681059  0.676810 -0.279440
			-0.543296  0.828145 -0.137859
			-0.915095  0.370367 -0.159469
			-0.783370  0.484224 -0.389691
			-0.700844  0.592052 -0.397860
			-0.841960  0.394703 -0.367848
			 0.961159 -0.148988 -0.232329
			 0.975773 -0.092529 -0.198255
			 0.984803 -0.025971 -0.171723
			 0.677403 -0.537060 -0.502685
			 0.614937 -0.547965 -0.567087
			 0.658355 -0.470465 -0.587565
			 0.719229 -0.430432 -0.545378
			 0.868031 -0.303331 -0.393080
			 0.964728  0.024796 -0.262079
			 0.875596  0.353566  0.329124
			 0.954838 -0.014740 -0.296762
			 0.192269 -0.768311 -0.610516
			-0.038957 -0.871219 -0.489347
			 0.231093 -0.649797 -0.724128
			 0.304314 -0.538485 -0.785765
			 0.141346 -0.565283 -0.812697
			 0.191211 -0.560273 -0.805936
			 0.289794 -0.535917 -0.792977
			 0.428378 -0.553399 -0.714312
			 0.300288 -0.558690 -0.773106
			-0.974606 -0.142827 -0.172466
			-0.991748 -0.032357 -0.124055
			-0.961161 -0.272223 -0.045425
			-0.939618 -0.258203  0.224610
			-0.987875  0.040931 -0.149758
			-0.856126 -0.412512  0.311260
			-0.785552 -0.460317  0.413541
			-0.798904 -0.527347  0.289236
			-0.960039 -0.216508  0.177340
			-0.579439 -0.815007  0.003757
			-0.754378 -0.604878  0.255022
			 0.900722 -0.060966  0.430097
			 0.272522  0.785933  0.555015
			 0.575562  0.641878  0.506676
			 0.955745  0.054603  0.289087
			 0.712204  0.129523  0.689920
			 0.359314  0.768595  0.529296
			 0.437306  0.770829  0.463235
			 0.368558  0.740981  0.561348
			-0.003220  0.964873  0.262698
			 0.134878  0.887634  0.440356
			-0.507376  0.843916  0.174283
			 0.083423  0.897789  0.432453
			-0.146367  0.957208  0.249658
			-0.445945  0.889515  0.099482
			-0.292451  0.956085 -0.019324
			-0.972575  0.054928 -0.226012
			-0.954752  0.222708 -0.197104
			-0.920062  0.248256 -0.303075
			-0.891326  0.167081 -0.421451
			-0.951538 -0.043229 -0.304477
			-0.782052  0.354798 -0.512360
			-0.537865  0.703007 -0.465277
			-0.425262  0.714257 -0.555868
			-0.381677  0.818850 -0.428727
			-0.618378  0.482413 -0.620391
			-0.709689  0.402278 -0.578371
			-0.569939  0.567776 -0.593969
			 0.974923 -0.077359 -0.208665
			 0.899748 -0.144816 -0.411682
			 0.978954 -0.054016 -0.196804
			 0.995505  0.001786 -0.094692
			 0.426888 -0.536128 -0.728240
			 0.414960 -0.498858 -0.760887
			 0.541452 -0.384373 -0.747722
			 0.710271 -0.335884 -0.618625
			 0.975712  0.006593 -0.218957
			 0.994803 -0.004097 -0.101733
			 0.026917 -0.679181 -0.733477
			-0.205384 -0.769257 -0.605029
			 0.077877 -0.594179 -0.800554
			 0.131436 -0.545295 -0.827876
			 0.227712 -0.514484 -0.826713
			 0.179732 -0.547244 -0.817447
			 0.209945 -0.559884 -0.801532
			 0.295522 -0.524079 -0.798754
			-0.976115 -0.085897 -0.199551
			-0.970147 -0.098235 -0.221729
			-0.944320 -0.247398 -0.216920
			-0.946567 -0.185358 -0.263919
			-0.983125 -0.154264 -0.098329
			-0.967835 -0.250232 -0.026054
			-0.877676 -0.479165  0.009197
			-0.822792 -0.531379  0.201616
			-0.617452 -0.703817 -0.351275
			 0.974455  0.199938 -0.102285
			 0.013370  0.866463  0.499062
			 0.722394  0.594840  0.352579
			 0.740972  0.671512  0.005719
			 0.233272  0.827239  0.511137
			 0.416874  0.866215  0.275478
			 0.508188  0.857295  0.082399
			 0.369450  0.632909  0.680392
			-0.133845  0.964874  0.226063
			 0.109159  0.859999  0.498484
			-0.078615  0.996542 -0.026904
			-0.228269  0.948052 -0.221564
			-0.758605  0.269996 -0.592976
			-0.872759  0.077734 -0.481923
			-0.701745  0.119055 -0.702410
			-0.724917 -0.267245 -0.634882
			-0.804716 -0.105862 -0.584145
			-0.615417  0.390868 -0.684459
			-0.641142  0.398020 -0.656138
			-0.630531  0.328300 -0.703313
			-0.415051  0.607428 -0.677321
			-0.248259  0.565834 -0.786257
			-0.248701  0.671242 -0.698271
			-0.075204  0.778758 -0.622801
			-0.208277  0.925451 -0.316482
			-0.440167  0.481961 -0.757606
			-0.479090  0.376687 -0.792830
			 0.773793 -0.200762 -0.600782
			 0.931445 -0.008179 -0.363791
			 0.738058 -0.085859 -0.669253
			 0.812696 -0.031786 -0.581821
			 0.978804  0.054008 -0.197550
			 0.929621  0.142833 -0.339712
			 0.948912  0.211997 -0.233718
			 0.290706 -0.361246 -0.885997
			 0.183364 -0.470830 -0.862958
			 0.162417 -0.292459 -0.942384
			 0.423709 -0.230974 -0.875855
			 0.360571 -0.329247 -0.872688
			 0.612357 -0.230568 -0.756212
			-0.135740 -0.670240 -0.729626
			-0.387516 -0.638199 -0.665231
			-0.169501 -0.606374 -0.776904
			-0.105756 -0.562950 -0.819697
			-0.005031 -0.526236 -0.850324
			-0.055683 -0.455359 -0.888565
			-0.951035 -0.147801 -0.271455
			-0.811921 -0.341832 -0.473218
			-0.754834 -0.307170 -0.579546
			-0.872369 -0.377115 -0.311058
			-0.716296 -0.603563 -0.350188
			 0.775646  0.578255 -0.252970
			 0.173915  0.716967  0.675064
			 0.269027  0.658763  0.702606
			 0.097726  0.888358  0.448630
			 0.247980  0.945157  0.212565
			 0.509054  0.860410 -0.023643
			 0.611763  0.722170 -0.322826
			 0.020532  0.945757 -0.324226
			 0.359722  0.917666 -0.168784
			-0.565992  0.190361 -0.802132
			-0.778053  0.040641 -0.626882
			-0.441157  0.033250 -0.896814
			-0.575375 -0.116708 -0.809520
			-0.479980 -0.305181 -0.822486
			-0.339019 -0.436198 -0.833545
			-0.483496 -0.403824 -0.776632
			-0.490980  0.288173 -0.822128
			-0.418926  0.157589 -0.894241
			-0.139826  0.443083 -0.885509
			-0.042957  0.573700 -0.817939
			 0.320976  0.781909 -0.534408
			 0.254587  0.636250 -0.728266
			-0.315118  0.383951 -0.867918
			-0.282894  0.245478 -0.927206
			 0.788563  0.132036 -0.600612
			 0.483654 -0.048910 -0.873892
			 0.579709  0.100597 -0.808590
			 0.791750  0.269037 -0.548407
			 0.833242  0.395953 -0.385913
			 0.758571  0.533968 -0.373428
			 0.211418 -0.167560 -0.962926
			 0.123875 -0.148518 -0.981120
			 0.020020 -0.397826 -0.917242
			 0.007404 -0.263703 -0.964576
			-0.075189 -0.251114 -0.965033
			-0.087367 -0.108769 -0.990220
			-0.024841 -0.089336 -0.995692
			 0.189563  0.050422 -0.980573
			-0.404625 -0.542084 -0.736494
			-0.623027 -0.570149 -0.535506
			-0.197157 -0.541298 -0.817390
			-0.296550 -0.172939 -0.939229
			-0.154831 -0.193193 -0.968867
			 0.536990  0.694138 -0.479389
			 0.583024  0.594583 -0.553673
			-0.261125 -0.010957 -0.965243
			-0.252578  0.135869 -0.957990
			-0.207089  0.024992 -0.978003
			-0.092003  0.296077 -0.950723
			 0.204351  0.276230 -0.939115
			 0.034236  0.421546 -0.906160
			 0.241009  0.433077 -0.868538
			 0.385493  0.509927 -0.769006
			-0.041029  0.172524 -0.984151
			 0.350821  0.286056 -0.891682
			 0.479597  0.298896 -0.825014
			 0.341832  0.143754 -0.928701
			 0.728172  0.463257 -0.505131
			 0.425477  0.408615 -0.807467
			-0.013784 -0.007592 -0.999876
			-0.155427 -0.089999 -0.983739
		</DataArray>
	</PointData>
	<Points>
		<DataArray type="Float32" NumberOfComponents="3" format="ascii">
			-0.010044 -0.012964 -0.006307
			-0.010780 -0.014172 -0.006052
			-0.010321 -0.013929 -0.006131
			-0.010644 -0.011976 -0.006718
			-0.009305 -0.011778 -0.006683
			-0.009339 -0.012333 -0.006546
			-0.009862 -0.013689 -0.006228
			-0.009492 -0.012800 -0.006434
			-0.011626 -0.013582 -0.006349
			-0.011237 -0.014418 -0.005996
			-0.010350 -0.014517 -0.006182
			-0.010809 -0.014755 -0.006077
			-0.009272 -0.011227 -0.006835
			-0.010546 -0.010301 -0.007056
			-0.011770 -0.012333 -0.006741
			-0.008842 -0.011575 -0.006978
			-0.008811 -0.011003 -0.007019
			-0.008839 -0.012180 -0.006988
			-0.008956 -0.012685 -0.006945
			-0.009939 -0.014248 -0.006317
			-0.009399 -0.013488 -0.006530
			-0.009548 -0.013985 -0.006587
			-0.009098 -0.013173 -0.006905
			-0.012274 -0.014259 -0.006125
			-0.012744 -0.012807 -0.006785
			-0.011695 -0.014662 -0.005925
			-0.011265 -0.015021 -0.006125
			-0.010952 -0.015099 -0.006527
			-0.010199 -0.014730 -0.006797
			-0.009240 -0.010661 -0.006903
			-0.008780 -0.010429 -0.007049
			-0.010939 -0.009425 -0.007195
			-0.009210 -0.010088 -0.006940
			-0.011551 -0.009964 -0.007264
			-0.012126 -0.010936 -0.007195
			-0.012825 -0.011608 -0.007186
			-0.008867 -0.012777 -0.007450
			-0.008702 -0.011981 -0.007518
			-0.008991 -0.013967 -0.007605
			-0.009846 -0.015114 -0.007526
			-0.009468 -0.014842 -0.007798
			-0.012368 -0.014745 -0.005846
			-0.013000 -0.014316 -0.006146
			-0.013036 -0.014843 -0.005865
			-0.013173 -0.013651 -0.006568
			-0.013803 -0.013243 -0.006983
			-0.012171 -0.015521 -0.006008
			-0.011740 -0.015285 -0.006275
			-0.010576 -0.015062 -0.006890
			-0.010326 -0.015312 -0.007265
			-0.008749 -0.009862 -0.007111
			-0.008459 -0.010019 -0.007687
			-0.011122 -0.008696 -0.007254
			-0.012423 -0.008367 -0.007582
			-0.011612 -0.008514 -0.007397
			-0.009603 -0.009211 -0.007069
			-0.009177 -0.009526 -0.007030
			-0.008717 -0.009299 -0.007199
			-0.013655 -0.009293 -0.007902
			-0.013744 -0.009820 -0.007857
			-0.013215 -0.010759 -0.007476
			-0.013735 -0.012151 -0.007348
			-0.013701 -0.011595 -0.007481
			-0.008765 -0.013582 -0.007891
			-0.008625 -0.013134 -0.008185
			-0.008802 -0.012262 -0.008011
			-0.008415 -0.010573 -0.008152
			-0.009157 -0.014519 -0.008076
			-0.010087 -0.015692 -0.008513
			-0.010174 -0.015504 -0.007758
			-0.010982 -0.015892 -0.007489
			-0.009172 -0.014631 -0.008840
			-0.013068 -0.015415 -0.005822
			-0.013457 -0.014571 -0.006137
			-0.013492 -0.015112 -0.005928
			-0.013823 -0.014339 -0.006420
			-0.014293 -0.014054 -0.006851
			-0.014219 -0.012994 -0.007400
			-0.012568 -0.015709 -0.006261
			-0.011738 -0.015450 -0.006776
			-0.012630 -0.015591 -0.006813
			-0.008345 -0.009938 -0.008207
			-0.008385 -0.009123 -0.008282
			-0.008733 -0.008874 -0.007540
			-0.009574 -0.008628 -0.007045
			-0.010213 -0.008155 -0.007098
			-0.011699 -0.007071 -0.007346
			-0.012286 -0.007068 -0.007546
			-0.013029 -0.007332 -0.007734
			-0.013300 -0.008352 -0.007862
			-0.009147 -0.008950 -0.007052
			-0.014999 -0.009810 -0.008409
			-0.014626 -0.008639 -0.008396
			-0.013753 -0.008637 -0.008013
			-0.013637 -0.010472 -0.007672
			-0.014511 -0.010470 -0.008025
			-0.014210 -0.011986 -0.007675
			-0.008686 -0.013723 -0.008392
			-0.008340 -0.012834 -0.008720
			-0.008457 -0.011217 -0.008353
			-0.008594 -0.011995 -0.008425
			-0.009244 -0.011433 -0.007986
			-0.009275 -0.012007 -0.007956
			-0.007985 -0.010767 -0.009154
			-0.008190 -0.010303 -0.008685
			-0.010489 -0.016069 -0.009007
			-0.011395 -0.016127 -0.007737
			-0.011554 -0.015769 -0.007258
			-0.009312 -0.014651 -0.009617
			-0.008853 -0.014178 -0.009130
			-0.013184 -0.015715 -0.006278
			-0.013703 -0.015559 -0.006307
			-0.013912 -0.014841 -0.006210
			-0.014327 -0.014595 -0.006643
			-0.014736 -0.013828 -0.007524
			-0.014595 -0.014648 -0.007188
			-0.015226 -0.012363 -0.008187
			-0.015087 -0.013043 -0.008035
			-0.014670 -0.013290 -0.007617
			-0.013358 -0.015603 -0.006809
			-0.011980 -0.015454 -0.007299
			-0.012558 -0.015439 -0.007317
			-0.008223 -0.009317 -0.008730
			-0.008469 -0.008651 -0.008585
			-0.009065 -0.008496 -0.007583
			-0.009547 -0.008022 -0.006898
			-0.010611 -0.007240 -0.007023
			-0.011034 -0.006941 -0.007155
			-0.010186 -0.007544 -0.006927
			-0.011668 -0.006503 -0.007407
			-0.011001 -0.006390 -0.007300
			-0.012543 -0.006499 -0.007741
			-0.013482 -0.007621 -0.007909
			-0.013659 -0.006925 -0.008154
			-0.009088 -0.007793 -0.007044
			-0.015446 -0.011625 -0.008372
			-0.015593 -0.010356 -0.008649
			-0.015653 -0.010901 -0.008588
			-0.015393 -0.009497 -0.008707
			-0.014057 -0.007257 -0.008354
			-0.014802 -0.007954 -0.008700
			-0.015043 -0.008387 -0.008784
			-0.008530 -0.013577 -0.008917
			-0.008229 -0.012606 -0.009253
			-0.008235 -0.011727 -0.008817
			-0.007974 -0.011658 -0.009332
			-0.007882 -0.010925 -0.009653
			-0.007785 -0.009722 -0.009196
			-0.011641 -0.016279 -0.008247
			-0.011479 -0.016549 -0.008992
			-0.010662 -0.016314 -0.009506
			-0.010042 -0.015434 -0.010342
			-0.009633 -0.015047 -0.009849
			-0.011992 -0.016102 -0.007756
			-0.009138 -0.014309 -0.010417
			-0.008699 -0.013624 -0.010207
			-0.008531 -0.013450 -0.009702
			-0.014275 -0.015085 -0.006881
			-0.015137 -0.013612 -0.008071
			-0.014846 -0.014380 -0.007736
			-0.014642 -0.014838 -0.007689
			-0.014229 -0.015119 -0.007393
			-0.015684 -0.012078 -0.008574
			-0.015420 -0.012853 -0.008406
			-0.014681 -0.015072 -0.008442
			-0.013243 -0.015606 -0.007837
			-0.012986 -0.015705 -0.007254
			-0.012492 -0.016026 -0.008294
			-0.008186 -0.008795 -0.009046
			-0.007755 -0.009147 -0.009216
			-0.008462 -0.008180 -0.008885
			-0.008629 -0.007992 -0.008334
			-0.009499 -0.007583 -0.007672
			-0.009532 -0.008271 -0.008245
			-0.009734 -0.007263 -0.006786
			-0.010646 -0.006611 -0.007024
			-0.010159 -0.006951 -0.006843
			-0.011537 -0.006076 -0.007872
			-0.012260 -0.006047 -0.007895
			-0.010420 -0.006228 -0.007311
			-0.010871 -0.006283 -0.007834
			-0.012962 -0.006231 -0.008045
			-0.013615 -0.006400 -0.008419
			-0.014072 -0.006702 -0.008708
			-0.009231 -0.007107 -0.007197
			-0.015864 -0.011367 -0.008734
			-0.015801 -0.009688 -0.009218
			-0.015987 -0.010614 -0.009139
			-0.015474 -0.008744 -0.009293
			-0.014687 -0.007467 -0.008870
			-0.008387 -0.012963 -0.009742
			-0.008192 -0.012194 -0.010064
			-0.008037 -0.011527 -0.010636
			-0.007628 -0.010094 -0.009720
			-0.007513 -0.009421 -0.009778
			-0.012073 -0.016408 -0.008506
			-0.012019 -0.016757 -0.009247
			-0.011116 -0.016620 -0.009749
			-0.011850 -0.016882 -0.010005
			-0.010619 -0.016177 -0.010291
			-0.010453 -0.015790 -0.010838
			-0.009738 -0.014613 -0.011380
			-0.008805 -0.013452 -0.010994
			-0.008472 -0.013023 -0.010513
			-0.015319 -0.013565 -0.008596
			-0.015115 -0.014199 -0.008276
			-0.015941 -0.011956 -0.009017
			-0.015739 -0.012697 -0.008945
			-0.014876 -0.014479 -0.009018
			-0.014611 -0.015066 -0.008957
			-0.013979 -0.015437 -0.008390
			-0.014177 -0.015366 -0.008918
			-0.013508 -0.015675 -0.008355
			-0.012738 -0.016665 -0.009276
			-0.013060 -0.016063 -0.008823
			-0.007937 -0.008423 -0.009303
			-0.007505 -0.008778 -0.009492
			-0.008478 -0.007247 -0.008965
			-0.008263 -0.007626 -0.008602
			-0.008960 -0.007464 -0.008418
			-0.009361 -0.007175 -0.008227
			-0.009415 -0.007052 -0.007723
			-0.009415 -0.007216 -0.008741
			-0.009700 -0.006711 -0.006934
			-0.011180 -0.006402 -0.008349
			-0.011679 -0.006209 -0.008380
			-0.012254 -0.005624 -0.008421
			-0.010359 -0.006508 -0.008058
			-0.009798 -0.006483 -0.007527
			-0.012997 -0.005712 -0.008721
			-0.013504 -0.005971 -0.008970
			-0.016016 -0.011236 -0.009342
			-0.015704 -0.009208 -0.009516
			-0.015936 -0.010122 -0.009699
			-0.015978 -0.010823 -0.009636
			-0.015638 -0.009157 -0.010035
			-0.014230 -0.006659 -0.009187
			-0.014592 -0.007190 -0.010440
			-0.008330 -0.012521 -0.010470
			-0.007968 -0.010949 -0.010944
			-0.007966 -0.010373 -0.010737
			-0.008525 -0.012497 -0.011237
			-0.008487 -0.011980 -0.011577
			-0.008351 -0.011497 -0.011679
			-0.007855 -0.009668 -0.010798
			-0.007704 -0.009359 -0.010305
			-0.012353 -0.016643 -0.009783
			-0.011553 -0.016754 -0.010782
			-0.012167 -0.017013 -0.010518
			-0.010954 -0.016107 -0.011081
			-0.010347 -0.014846 -0.011951
			-0.009629 -0.014151 -0.011735
			-0.009057 -0.013347 -0.011533
			-0.015162 -0.013929 -0.009076
			-0.015887 -0.011647 -0.009818
			-0.015808 -0.012492 -0.009482
			-0.015148 -0.013499 -0.009630
			-0.014708 -0.014769 -0.009503
			-0.014916 -0.014197 -0.009819
			-0.014408 -0.015352 -0.009442
			-0.013702 -0.015599 -0.008883
			-0.013235 -0.016639 -0.010066
			-0.013244 -0.016487 -0.009307
			-0.013506 -0.015896 -0.009367
			-0.007686 -0.008052 -0.009571
			-0.007492 -0.008873 -0.010021
			-0.008574 -0.007191 -0.009820
			-0.009091 -0.006903 -0.009017
			-0.008771 -0.006732 -0.009912
			-0.009529 -0.006769 -0.008526
			-0.009785 -0.006573 -0.008035
			-0.011014 -0.006232 -0.008875
			-0.010761 -0.006745 -0.008389
			-0.011710 -0.005802 -0.008675
			-0.012118 -0.005512 -0.008971
			-0.010178 -0.006610 -0.008559
			-0.013182 -0.005697 -0.009501
			-0.012572 -0.005413 -0.009767
			-0.015789 -0.009862 -0.010234
			-0.015284 -0.008455 -0.010346
			-0.013469 -0.005951 -0.010003
			-0.013540 -0.005761 -0.011570
			-0.014973 -0.008257 -0.011387
			-0.015166 -0.008526 -0.010852
			-0.014088 -0.006581 -0.011770
			-0.014314 -0.007047 -0.011993
			-0.007984 -0.009951 -0.011550
			-0.008175 -0.010483 -0.012023
			-0.008970 -0.012847 -0.011748
			-0.009165 -0.012245 -0.012668
			-0.009089 -0.011778 -0.013145
			-0.008609 -0.011389 -0.012729
			-0.008352 -0.010897 -0.012507
			-0.007779 -0.008835 -0.011128
			-0.007491 -0.008289 -0.010486
			-0.012645 -0.016731 -0.010299
			-0.012356 -0.016927 -0.011047
			-0.011767 -0.016505 -0.011327
			-0.011756 -0.015642 -0.012292
			-0.011755 -0.016079 -0.011881
			-0.010353 -0.014312 -0.012403
			-0.011054 -0.014978 -0.012355
			-0.010975 -0.013952 -0.013081
			-0.011065 -0.014437 -0.012782
			-0.010278 -0.013270 -0.013043
			-0.009412 -0.013166 -0.012075
			-0.015776 -0.011571 -0.010338
			-0.015655 -0.012567 -0.011018
			-0.015627 -0.012926 -0.010469
			-0.015653 -0.012047 -0.011065
			-0.015604 -0.012775 -0.009966
			-0.015165 -0.013640 -0.010134
			-0.014632 -0.014807 -0.010014
			-0.015010 -0.014469 -0.010313
			-0.014425 -0.015492 -0.009946
			-0.013966 -0.015670 -0.009616
			-0.013111 -0.017113 -0.010794
			-0.013589 -0.016832 -0.010576
			-0.014075 -0.015990 -0.010149
			-0.013849 -0.016236 -0.010637
			-0.012958 -0.015593 -0.010153