<?xml version="1.0"?>
<VTKFile type="PolyData" version="0.1" byte_order="LittleEndian" compressor="vtkZLibDataCompressor">
	<PolyData>
		<Piece NumberOfPoints="1003" NumberOfVerts="0" NumberOfLines="0" NumberOfStrips="0" NumberOfPolys="2002">
		<PointData Normals="Normals">
		<DataArray type="Float32" Name="Normals" NumberOfComponents="3" format="ascii">
			 0.071659 -0.073266  0.994735
			 0.237567  0.108690  0.965271
			-0.020853  0.026731  0.999425
			 0.357448  0.078433  0.930634
			 0.115315 -0.034386  0.992734
			-0.236160 -0.198433  0.951238
			-0.440744 -0.139286  0.886760
			 0.065696  0.213293  0.974777
			 0.369460  0.232544  0.899679
			 0.180452  0.287467  0.940638
			-0.372696  0.130614  0.918716
			 0.439637  0.206832  0.874037
			 0.438018  0.151362  0.886132
			 0.363548  0.126939  0.922886
			-0.353214 -0.218384  0.909697
			-0.056136 -0.014429  0.998319
			 0.183302  0.130441  0.974364
			-0.494930 -0.300905  0.815169
			-0.640181 -0.266273  0.720602
			-0.792125 -0.022703  0.609937
			-0.834778 -0.184583  0.518724
			-0.147316  0.289667  0.945723
			 0.438894  0.251319  0.862677
			 0.425309  0.320371  0.846448
			 0.265179  0.325477  0.907604
			 0.005420  0.345187  0.938518
			-0.667154  0.081947  0.740399
			-0.698026  0.124545  0.705159
			 0.490416  0.219016  0.843519
			 0.483754  0.245007  0.840210
			 0.437639  0.215418  0.872965
			 0.486976  0.205284  0.848948
			 0.320216  0.237346  0.917131
			-0.301428 -0.185697  0.935231
			-0.708866 -0.246230  0.660969
			-0.539120 -0.291848  0.790047
			 0.046481  0.078992  0.995791
			-0.048856 -0.155212  0.986672
			 0.175343  0.119422  0.977237
			-0.856815 -0.196886  0.476554
			-0.932405 -0.107834  0.344953
			-0.973746 -0.032173  0.225351
			-0.980009 -0.129520  0.151021
			-0.351655  0.313732  0.881993
			 0.517044  0.333769  0.788203
			 0.453642  0.457730  0.764652
			 0.352893  0.492601  0.795494
			 0.267974  0.357134  0.894788
			 0.089748  0.432166  0.897317
			-0.585036  0.271764  0.764119
			-0.206880  0.328907  0.921423
			-0.951167  0.022345  0.307868
			-0.774274  0.153842  0.613867
			 0.550405  0.262364  0.792603
			 0.496237  0.242736  0.833564
			 0.417470  0.127368  0.899720
			 0.484922  0.225703  0.844931
			 0.505591  0.263392  0.821585
			-0.446523 -0.333243  0.830401
			-0.299401 -0.262398  0.917337
			-0.924732 -0.246466  0.290045
			-0.907509 -0.288512  0.305267
			-0.608050 -0.487996  0.626207
			-0.735965 -0.482911  0.474502
			 0.173853 -0.157847  0.972039
			-0.260349 -0.353984  0.898284
			-0.084470 -0.439910  0.894060
			-0.995275 -0.070760  0.066483
			-0.980591 -0.016781  0.195345
			-0.952466 -0.256449 -0.164443
			-0.967749 -0.250569 -0.026028
			-0.961768 -0.233433 -0.143216
			 0.518277  0.380437  0.765935
			 0.561568  0.337805  0.755334
			 0.447373  0.539453  0.713336
			 0.545104  0.414762  0.728583
			 0.261764  0.521590  0.812049
			 0.392698  0.546095  0.739979
			 0.332975  0.555002  0.762300
			-0.291363  0.405044  0.866630
			-0.052855  0.547742  0.834976
			-0.724157  0.239154  0.646840
			 0.547031  0.284587  0.787253
			 0.605193  0.287372  0.742400
			 0.599268  0.314739  0.736082
			 0.598342  0.017854  0.801042
			 0.608085  0.095758  0.788076
			 0.522010 -0.145586  0.840423
			 0.236319 -0.269921  0.933432
			 0.591005  0.154457  0.791742
			 0.581252  0.330803  0.743449
			 0.559721  0.290493  0.776097
			-0.542164 -0.502172  0.673707
			-0.909500 -0.402185 -0.105154
			-0.947596 -0.303524 -0.099677
			-0.877589 -0.459491 -0.136769
			-0.766848 -0.614133  0.186509
			-0.714126 -0.622351  0.320472
			 0.230030 -0.500579  0.834570
			-0.613870 -0.578527  0.537094
			-0.157509 -0.641097  0.751123
			 0.252446 -0.535237  0.806097
			-0.999338  0.028312 -0.022856
			-0.987793 -0.150264 -0.041052
			-0.968343 -0.143894  0.203976
			-0.978457 -0.093227  0.184203
			-0.958940  0.065407  0.275963
			-0.850366 -0.373011 -0.371134
			-0.795089 -0.405547 -0.450960
			 0.438783  0.587628  0.679826
			 0.539424  0.527552  0.656286
			 0.598172  0.405273  0.691335
			 0.234627  0.590921  0.771857
			 0.313976  0.638109  0.703019
			 0.356100  0.659325  0.662180
			-0.481742  0.379192  0.790024
			 0.029020  0.683566  0.729312
			-0.299250  0.672287  0.677112
			-0.490251  0.576422  0.653752
			-0.735736  0.387383  0.555542
			 0.634400  0.273709  0.722925
			 0.644386  0.295148  0.705446
			 0.643312  0.335458  0.688199
			 0.665049 -0.107053  0.739087
			 0.446468 -0.481821  0.754000
			 0.592250 -0.394480  0.702585
			 0.642506  0.002802  0.766276
			 0.622082  0.149308  0.768584
			 0.600287  0.411575  0.685756
			 0.580746  0.445803  0.681171
			 0.629155  0.240049  0.739283
			-0.803472 -0.509199 -0.308463
			-0.810518 -0.472558 -0.346049
			-0.678363 -0.621653 -0.391627
			-0.660345 -0.701770 -0.267326
			 0.454247 -0.542115  0.706945
			-0.676515 -0.657837  0.331025
			-0.894612 -0.432950 -0.110558
			 0.194183 -0.694936  0.692356
			-0.680038 -0.727489  0.091148
			-0.185792 -0.738611  0.648025
			 0.449797 -0.534301  0.715685
			-0.936468 -0.350117  0.021114
			-0.988176 -0.042568  0.147297
			-0.981057 -0.133578  0.140301
			-0.991716 -0.013680  0.127718
			-0.811319  0.388985  0.436408
			-0.942699  0.248485  0.222652
			-0.692828 -0.472542 -0.544696
			-0.703463 -0.495173 -0.509847
			-0.744636 -0.571539 -0.344762
			 0.474595  0.652377  0.590901
			 0.388618  0.734408  0.556437
			 0.612432  0.489915  0.620412
			 0.565169  0.612865  0.552250
			 0.650186  0.423922  0.630514
			 0.215223  0.682325  0.698650
			 0.179535  0.774123  0.607042
			 0.253483  0.786437  0.563261
			-0.341947  0.595521  0.726930
			 0.023650  0.729987  0.683051
			 0.680831  0.281641  0.676126
			 0.664372  0.337895  0.666661
			 0.654749 -0.292098  0.697125
			 0.694827 -0.106287  0.711280
			 0.530376 -0.561304  0.635326
			 0.589693 -0.493136  0.639593
			 0.678208  0.033385  0.734111
			 0.600866  0.496395  0.626540
			 0.621825  0.345650  0.702751
			-0.636549 -0.577131 -0.511590
			-0.729929 -0.325833 -0.600863
			-0.788579 -0.369278 -0.491708
			-0.687669 -0.577710 -0.439730
			 0.604174 -0.578409  0.548103
			-0.242701 -0.861402  0.446188
			-0.019525 -0.886371  0.462563
			 0.300278 -0.857919  0.416904
			 0.438957 -0.671893  0.596555
			-0.811808 -0.244624 -0.530213
			-0.689636 -0.704550 -0.167367
			-0.939570 -0.340070  0.039511
			-0.851962 -0.508089 -0.126518
			-0.987100 -0.071369  0.143318
			-0.999575  0.026822 -0.011431
			-0.616652  0.585117  0.526667
			-0.991519  0.115290  0.059983
			-0.866552  0.442011  0.231764
			-0.656058  0.595534  0.463602
			-0.596639 -0.543037 -0.590874
			-0.575607 -0.541775 -0.612500
			-0.574408 -0.617763 -0.537052
			-0.667133 -0.640701 -0.380047
			-0.563360 -0.678706 -0.471151
			 0.457542  0.773711  0.438209
			 0.427787  0.796892  0.426568
			 0.389939  0.792408  0.469081
			 0.302957  0.829686  0.468870
			 0.613247  0.592020  0.522916
			 0.551054  0.702666  0.450112
			 0.681155  0.451687  0.576200
			 0.691852  0.322021  0.646253
			 0.695049  0.398411  0.598478
			-0.181860  0.753953  0.631255
			-0.059942  0.844303  0.532503
			 0.103273  0.846296  0.522607
			 0.118368  0.861773  0.493291
			 0.676172  0.293630  0.675702
			 0.727998  0.273101  0.628836
			 0.684887  0.354507  0.636596
			 0.610757 -0.483862  0.626780
			 0.670574 -0.387167  0.632797
			 0.694084 -0.181519  0.696633
			 0.632263 -0.008082  0.774712
			 0.621356  0.490450  0.611044
			 0.645492  0.180015  0.742250
			 0.660749  0.418144  0.623350
			-0.556658 -0.606893 -0.567285
			-0.677212 -0.375144 -0.632970
			-0.612688 -0.516208 -0.598449
			-0.721618 -0.367850 -0.586476
			-0.710771 -0.125093 -0.692211
			 0.628145 -0.551792  0.548597
			 0.653520 -0.648322  0.390628
			 0.562959 -0.722950  0.400526
			 0.573534 -0.817102  0.058335
			-0.106476 -0.993171  0.047690
			 0.440763 -0.893073  0.090275
			-0.065087 -0.988385 -0.137324
			-0.739739 -0.249438 -0.624953
			-0.584979 -0.482443 -0.651957
			-0.377611 -0.808277 -0.451773
			-0.761252 -0.548872 -0.345303
			-0.971434 -0.215384 -0.099629
			-0.994699  0.061818 -0.082177
			-0.980818  0.009247 -0.194708
			-0.927736 -0.182663 -0.325486
			-0.987733  0.148634 -0.047862
			-0.975722  0.201748  0.085229
			-0.438376  0.782891  0.441485
			-0.507215  0.798098  0.325226
			-0.708585  0.688755  0.153377
			-0.896724  0.430060  0.104570
			-0.572861 -0.494221 -0.653893
			-0.586631 -0.498745 -0.638058
			-0.592611 -0.528560 -0.607813
			-0.509070 -0.657806 -0.555103
			-0.569536 -0.617117 -0.542951
			-0.633974 -0.568937 -0.523819
			-0.546708 -0.708235 -0.446670
			 0.392316  0.875335  0.282625
			 0.410181  0.881309  0.234619
			 0.500373  0.787451  0.359926
			 0.373744  0.854784  0.360082
			 0.233590  0.901454  0.364441
			 0.698315  0.510392  0.501852
			 0.611490  0.709120  0.351040
			 0.672942  0.629505  0.388422
			 0.729351  0.378565  0.569856
			-0.139206  0.887352  0.439577
			-0.028438  0.949262  0.313198
			 0.719087  0.435194  0.541774
			 0.787932  0.394488  0.472803
			 0.657986  0.487979  0.573525
			 0.615305 -0.552371  0.562393
			 0.691786 -0.353650  0.629574
			 0.630530 -0.611559  0.477941
			 0.611571 -0.538826  0.579351
			 0.683628 -0.362275  0.633569
			 0.663733 -0.208503  0.718321
			 0.706164  0.076357  0.703919
			 0.697684  0.430298  0.572783
			-0.696632 -0.428600 -0.575331
			-0.614096 -0.466743 -0.636425
			-0.641763 -0.496261 -0.584692
			-0.544723 -0.466100 -0.697157
			 0.621836 -0.685661  0.378403
			 0.615781 -0.777049  0.130420
			-0.018778 -0.855608 -0.517283
			 0.385717 -0.901723 -0.195239
			 0.034528 -0.845609 -0.532685
			-0.845073 -0.394780 -0.360555
			-0.617828 -0.678397 -0.397576
			-0.982903  0.033160 -0.181116
			-0.943083 -0.174807 -0.282908
			-0.938279 -0.132008 -0.319698
			-0.955904  0.050995 -0.289216
			-0.910593  0.408394 -0.063526
			-0.969191  0.029910 -0.244489
			-0.952484  0.190718 -0.237489
			-0.385324  0.894301  0.227489
			-0.669326  0.740162 -0.064519
			-0.514192 -0.708532 -0.483311
			-0.633050 -0.650114 -0.420238
			-0.721762 -0.525704 -0.450216
			 0.314984  0.924434  0.214960
			 0.299360  0.947679  0.110853
			 0.339028  0.932776  0.122427
			 0.413156  0.908355  0.064751
			 0.496758  0.843585  0.203953
			 0.566564  0.784158  0.253182
			 0.205971  0.947604  0.244177
			 0.771559  0.505868  0.385740
			 0.641115  0.757582  0.122637
			 0.702829  0.660169  0.264966
			-0.257135  0.955828  0.142389
			-0.036795  0.996672  0.072734
			 0.760949  0.502002  0.411036
			 0.698625  0.552551  0.454545
			 0.818067  0.528159  0.227629
			 0.800688  0.462173  0.381176
			 0.626736 -0.530960  0.570337
			 0.552937 -0.747309  0.368498
			 0.600341 -0.725443  0.336635
			 0.487672 -0.728244  0.481495
			 0.369024 -0.825868  0.426337
			 0.480231 -0.791701  0.377609
			 0.726692 -0.217649  0.651573
			 0.678597 -0.438324  0.589388
			 0.782238  0.096526  0.615456
			 0.801860  0.260472  0.537750
			-0.760067 -0.493657 -0.422612
			-0.578422 -0.608055 -0.543780
			-0.517083 -0.547630 -0.657820
			-0.067054 -0.864973 -0.497318
			 0.677160 -0.708394  0.199077
			 0.521871 -0.839160  0.153168
			 0.424714 -0.897002 -0.122499
			-0.868027 -0.357101 -0.344975
			-0.530408 -0.729764 -0.431408
			-0.581227 -0.728793 -0.361989
			-0.542875 -0.786367 -0.294813
			-0.787289 -0.469440 -0.399754
			-0.582772 -0.736592 -0.343232
			-0.958081  0.024655 -0.285435
			-0.875927 -0.239128 -0.419010
			-0.930998 -0.005805 -0.364978
			-0.925824  0.020974 -0.377374
			-0.890501  0.064059 -0.450449
			-0.943597 -0.015535 -0.330731
			-0.816684  0.503240 -0.282447
			-0.953879  0.056126 -0.294897
			-0.921370  0.235580 -0.309160
			-0.385294  0.915898 -0.112598
			-0.602018  0.739535 -0.301102
			-0.715587 -0.616688 -0.328072
			-0.788247 -0.530847 -0.311238
			 0.148245  0.987632  0.051055
			 0.184279  0.982125 -0.038350
			 0.305794  0.951073 -0.044167
			 0.516899  0.855736  0.023055
			 0.447930  0.889567 -0.089605
			 0.766219  0.586248  0.263100
			 0.581606  0.807903 -0.095010
			 0.656524  0.753363 -0.037693
			 0.743276  0.658666  0.117046
			 0.691257  0.720210 -0.058838
			-0.079644  0.987738 -0.134274
			 0.821689  0.480264  0.306876
			 0.784453  0.523063  0.333223
			 0.750281  0.512889  0.417161
			 0.783289  0.620097  0.044024
			 0.833550  0.512654  0.205868
			 0.787825  0.614102  0.047026
			 0.788453  0.615034  0.008626
			 0.567255 -0.613313  0.549609
			 0.305406 -0.941452  0.142813
			 0.414254 -0.854104  0.314485
			 0.287261 -0.811003  0.509662
			 0.177774 -0.906513  0.382923
			 0.262970 -0.932693  0.246841
			 0.809015 -0.044517  0.586100
			 0.773872 -0.242286  0.585166
			 0.655366 -0.471900  0.589751
			 0.844912  0.021671  0.534466
			 0.827534  0.269227  0.492651
			-0.806151 -0.525169 -0.272615
			-0.791792 -0.557977 -0.248447
			-0.734397 -0.536201 -0.416113
			-0.625397 -0.696194 -0.352409
			-0.267394 -0.908303 -0.321694
			 0.220056 -0.969507 -0.107851
			-0.629921 -0.736250 -0.247257
			-0.634858 -0.718932 -0.283005
			-0.603385 -0.780316 -0.164417
			-0.879411 -0.166318 -0.446066
			-0.811940 -0.463379 -0.355012
			-0.919447 -0.052660 -0.389671
			-0.930744 -0.022330 -0.364988
			-0.840757  0.074804 -0.536221
			-0.816206  0.378144 -0.436824
			-0.732627  0.395915 -0.553632
			-0.723155  0.244755 -0.645865
			-0.817466  0.453925 -0.354544
			-0.566092  0.740641 -0.361926
			-0.935007  0.154081 -0.319409
			-0.338029  0.898432 -0.280279
			-0.725667 -0.645258 -0.238851
			-0.793678 -0.571546 -0.208354
			-0.849572 -0.517716 -0.100977
			 0.047911  0.993496 -0.103300
			 0.090433  0.974133 -0.207093
			 0.403379  0.888377 -0.219254
			 0.234500  0.951667 -0.198343
			 0.502375  0.852200 -0.146203
			 0.526970  0.827276 -0.194724
			 0.624697  0.747539 -0.225698
			 0.768161  0.640061 -0.015812
			 0.721104  0.671250 -0.171558
			 0.687790  0.696681 -0.203911
			-0.207463  0.930764 -0.301060
			-0.065907  0.963827 -0.258250
			 0.820602  0.516384  0.244866
			 0.801512  0.549804  0.235148
			 0.806698  0.473158  0.354061
			 0.769966  0.631117 -0.094043
			 0.715764  0.676159 -0.174618
			 0.652826  0.744618 -0.139149
			 0.750726  0.641649  0.157152
			 0.685915  0.727470 -0.017557
			 0.681982 -0.473176  0.557678
			 0.382008 -0.705068  0.597452
			 0.736766 -0.449043  0.505506
			 0.775784 -0.370412  0.510837
			-0.010169 -0.995961 -0.089214
			-0.023488 -0.997968  0.059237
			 0.036205 -0.869939  0.491828
			 0.005398 -0.970027  0.242937
			 0.824811 -0.297862  0.480588
			 0.866920  0.010444  0.498339
			 0.872441  0.277589  0.402233
			-0.728352 -0.677988 -0.099171
			-0.841998 -0.537166 -0.049925
			-0.430736 -0.896239 -0.105940
			-0.708216 -0.690238 -0.148329
			-0.736031 -0.625687 -0.258406
			-0.649864 -0.747093 -0.139749
			-0.674152 -0.732654 -0.093470
			-0.891085 -0.093565 -0.444087
			-0.865684 -0.239294 -0.439692
			-0.874558 -0.280110 -0.395836
			-0.913937 -0.129435 -0.384662
			-0.725250  0.221433 -0.651905
			-0.679438  0.190405 -0.708597
			-0.634359  0.658511 -0.404909
			-0.607939  0.599176 -0.520960
			-0.536065  0.584178 -0.609401
			-0.668614  0.175215 -0.722672
			-0.431601  0.813931 -0.388892
			-0.815020 -0.572806 -0.087388
			-0.867805 -0.494631  0.047482
			-0.888850 -0.448412  0.094195
			-0.051803  0.951014 -0.304777
			 0.129684  0.942581 -0.307771
			 0.439698  0.827672 -0.348748
			 0.372400  0.816070 -0.441983
			 0.504211  0.807544 -0.306011
			 0.257549  0.888872 -0.378912
			 0.591098  0.754001 -0.286507
			 0.660400  0.690035 -0.296182
			 0.620378  0.708679 -0.336012
			 0.596085  0.701409 -0.390778
			 0.635674  0.723095 -0.270281
			-0.288346  0.885055 -0.365424
			 0.798493  0.577121  0.171287
			 0.924087  0.289991  0.248936
			 0.906982  0.198992  0.371196
			 0.921763  0.043554  0.385301
			 0.508677  0.811234 -0.288351
			 0.615480  0.776431 -0.135427
			 0.727998  0.684009  0.046382
			 0.677948  0.728098 -0.101291
			 0.241927 -0.785686  0.569359
			 0.674689 -0.516234  0.527538
			 0.782187 -0.422058  0.458313
			 0.817527 -0.394152  0.419873
			 0.872373 -0.320537  0.369082
			-0.318923 -0.932781  0.167954
			-0.130252 -0.901184  0.413403
			 0.145408 -0.843357  0.517306
			-0.008464 -0.867152  0.497971
			 0.849252 -0.337321  0.406184
			-0.619038 -0.784919  0.026338
			-0.612889 -0.754637  0.234285
			-0.796052 -0.597655  0.095446
			-0.771997 -0.633160 -0.055942
			-0.866593 -0.377638 -0.326199
			-0.795367 -0.585735 -0.155903
			-0.769684 -0.637565  0.033132
			-0.843556  0.017947 -0.536741
			-0.888948 -0.149919 -0.432777
			-0.580072  0.246555 -0.776355
			-0.536224  0.373430 -0.756977
			-0.163421  0.907654 -0.386599
			-0.127127  0.731178 -0.670237
			-0.451771  0.367414 -0.812964
			-0.523504  0.196628 -0.829024
			-0.849646 -0.525089  0.048820
			-0.778915 -0.539580  0.319600
			-0.914416 -0.331381  0.232444
			-0.903224 -0.409234  0.129282
			 0.087479  0.904079 -0.418317
			 0.467509  0.746885 -0.472862
			 0.402927  0.717130 -0.568660
			 0.248709  0.790938 -0.559072
			 0.350654  0.741669 -0.571812
			 0.559076  0.727286 -0.398107
			 0.603840  0.679169 -0.417261
			 0.584969  0.714101 -0.384541
			 0.480100  0.692536 -0.538422
			 0.541701  0.771550 -0.333574
			 0.819194  0.573484 -0.006197
			 0.890208  0.455123 -0.019835
			 0.984907  0.077991  0.154519
			 0.977820  0.001267  0.209444
			 0.967961 -0.009899  0.250904
			 0.975361  0.210523  0.065962
			 0.956478 -0.012153  0.291552
			 0.959445 -0.126119  0.252111
			 0.397989  0.771675 -0.496107
			 0.487067  0.792075 -0.367945
			 0.611927  0.745371 -0.264513
			 0.526450  0.758645 -0.383807
			 0.791533  0.596255 -0.133999
			 0.728379  0.635110 -0.257098
			 0.505560 -0.697701  0.507564
			 0.815194 -0.493620  0.302983
			 0.814841 -0.439518  0.377966
			 0.917071 -0.311581  0.248795
			 0.863418 -0.392844  0.316516
			 0.911323 -0.359029  0.201464
			-0.265152 -0.894353  0.360315
			-0.149983 -0.826778  0.542166
			 0.077679 -0.868690  0.489227
			 0.395906 -0.830655  0.391497
			 0.874443 -0.380398  0.301076
			-0.407616 -0.725809  0.554122
			-0.699676 -0.577179  0.421091
			-0.869464 -0.209295 -0.447467
			-0.876154 -0.320088 -0.360412
			-0.790748 -0.611156  0.034731
			-0.862848 -0.503272 -0.047025
			-0.880985 -0.247864 -0.403024
			-0.867786 -0.481317  0.123618
			-0.847511 -0.521299  0.099864
			-0.720979  0.169132 -0.672000
			-0.684893  0.096726 -0.722195
			-0.469239  0.333502 -0.817674
			-0.463362  0.254569 -0.848817
			-0.427115  0.355305 -0.831463
			 0.049917  0.616413 -0.785839
			-0.216862  0.481006 -0.849473
			-0.200576  0.426249 -0.882089
			-0.859746 -0.368558  0.353556
			-0.767430 -0.478090  0.427178
			-0.915450 -0.304085  0.263598
			-0.902709 -0.382638  0.196734
			-0.936106 -0.271531  0.223553
			-0.924376 -0.305827  0.228034
			 0.198395  0.631780 -0.749329
			 0.241218  0.673508 -0.698713
			 0.480004  0.676772 -0.558190
			 0.308291  0.626584 -0.715785
			 0.940176  0.340626 -0.006511
			 0.964237  0.264668  0.014072
			 0.844068  0.530818 -0.076034
			 0.793403  0.592687 -0.138684
			 0.984233 -0.020135  0.175729
			 0.979785  0.007887  0.199896
			 0.986997  0.124214  0.102014
			 0.962156 -0.150138  0.227410
			 0.871700 -0.373367  0.317389
			 0.929099 -0.285349  0.235270
			 0.409330  0.627683 -0.662165
			 0.378675  0.797511 -0.469662
			 0.331808  0.695956 -0.636827
			 0.111308  0.822748 -0.557401
			 0.195825  0.836268 -0.512160
			 0.602913  0.705794 -0.371954
			 0.760521  0.614506 -0.209740
			 0.605330  0.749556 -0.267846
			 0.668975  0.715666 -0.200732
			 0.541651 -0.795204  0.272514
			 0.740964 -0.629838  0.232973
			 0.830812 -0.468480  0.300462
			 0.909043 -0.292060  0.297224
			 0.187158 -0.801562  0.567865
			-0.159711 -0.724022  0.671033
			-0.048000 -0.753244  0.655987
			 0.377063 -0.831433  0.408097
			-0.229983 -0.713854  0.661453
			-0.682197 -0.499704  0.533763
			-0.468897 -0.536987  0.701270
			-0.698869 -0.154589 -0.698344
			-0.582137 -0.031143 -0.812494
			-0.730386  0.006315 -0.683006
			-0.908471 -0.416801  0.030922
			-0.933473 -0.270796 -0.235156
			-0.718407  0.077850 -0.691253
			-0.808804  0.095474 -0.580277
			-0.916381 -0.351829  0.190951
			-0.903888 -0.385137  0.186160
			-0.956440 -0.283762  0.068575
			-0.962350 -0.259358  0.081335
			-0.436904  0.216119 -0.873159
			-0.472933  0.283780 -0.834148
			-0.114580  0.442507 -0.889415
			-0.384058  0.265275 -0.884381
			-0.771486 -0.270020  0.576107
			-0.914851 -0.187230  0.357760
			-0.954451 -0.230855  0.189023
			-0.043690  0.486506 -0.872584
			-0.293142  0.345905 -0.891301
			 0.220757  0.583239 -0.781728
			 0.973721  0.209387  0.089582
			 0.980078  0.157748  0.120674
			 0.936111  0.351257  0.017731
			 0.880018  0.474253 -0.025544
			 0.712423  0.689072 -0.132792
			 0.986244  0.014556  0.164657
			 0.954484 -0.207020  0.214716
			 0.086301  0.604079 -0.792238
			 0.173936  0.457827 -0.871861
			 0.175026  0.530260 -0.829572
			 0.211619  0.855527 -0.472537
			 0.464881  0.779675 -0.419515
			-0.090306  0.874239 -0.477023
			-0.136957  0.845888 -0.515477
			 0.430534  0.845509 -0.315841
			 0.560279  0.812477 -0.161145
			 0.595664  0.789321 -0.148852
			 0.639273 -0.705229  0.306566
			 0.880029 -0.273167  0.388494
			 0.761816 -0.581058  0.286372
			 0.685595 -0.645206  0.337149
			 0.863112 -0.424439  0.273659
			 0.932296 -0.159598  0.324581
			 0.881633 -0.276711  0.382302
			 0.188259 -0.768430  0.611615
			-0.001713 -0.716537  0.697547
			 0.492727 -0.748555  0.443718
			 0.536968 -0.723378  0.434039
			 0.353581 -0.768222  0.533682
			-0.154471 -0.677482  0.719136
			-0.202074 -0.585620  0.784993
			-0.419279 -0.455792  0.785149
			-0.665775 -0.252993  0.701953
			-0.496889  0.285475 -0.819515
			-0.577777  0.267061 -0.771266
			-0.963228 -0.087433 -0.254063
			-0.678439  0.287365 -0.676123
			-0.707648  0.306341 -0.636702
			-0.979175 -0.193522 -0.061368
			-0.963987 -0.177249  0.198271
			-0.959716 -0.200301  0.197037
			-0.934175  0.060505 -0.351648
			-0.921316  0.142825 -0.361631
			-0.996306 -0.084809 -0.013512
			-0.242244  0.421586 -0.873832
			-0.891643 -0.116832  0.437404
			-0.805141 -0.155656  0.572293
			-0.923739 -0.065290  0.377417
			-0.960565  0.004657  0.278015
			-0.045375  0.367181 -0.929042
			 0.956921  0.238963  0.164920
			 0.968270  0.024945  0.248659
			 0.885219  0.463622  0.037986
			 0.786651  0.605978  0.118200
			 0.726187  0.682338 -0.084074
			-0.159131  0.761409 -0.628438
			-0.011484  0.323813 -0.946051
			-0.064963  0.512384 -0.856296
			 0.046182  0.925338 -0.376320
			-0.099961  0.889569 -0.445730
			-0.182956  0.931573 -0.314165
			-0.373797  0.848603 -0.374363
			 0.492773  0.847585 -0.196910
			 0.241020  0.954282 -0.176791
			 0.434970  0.855851 -0.279858
			 0.577000  0.815939 -0.036266
			 0.788143 -0.575171  0.219110
			 0.665671 -0.678334  0.311038
			 0.830538 -0.530913  0.168338
			 0.866495 -0.481841  0.130445
			 0.952901 -0.205296  0.223236
			 0.910476 -0.285987  0.298739
			 0.958024 -0.114173  0.262971
			 0.007002 -0.671298  0.741154
			 0.098868 -0.751650  0.652110
			 0.307623 -0.758653  0.574294
			-0.075673 -0.632567  0.770800
			 0.425481 -0.790388  0.440742
			-0.134016 -0.608850  0.781883
			-0.624868 -0.271916  0.731848
			-0.362983 -0.494580  0.789705
			-0.156135 -0.617623  0.770820
			-0.504760  0.367219 -0.781261
			-0.437456  0.456445 -0.774783
			-0.757883  0.282455 -0.588076
			-0.667443  0.338945 -0.663050
			-0.610217  0.442319 -0.657259
			-0.984969 -0.012545  0.172275
			-0.978540  0.113572 -0.171932
			-0.873973  0.216086 -0.435290
			-0.744187  0.379389 -0.549772
			-0.805741  0.330651 -0.491376
			-0.803077  0.304117 -0.512426
			-0.009544  0.433013 -0.901337
			-0.004225  0.567527 -0.823344
			-0.162660  0.642730 -0.748626
			-0.755490 -0.114859  0.645013
			-0.863008  0.014484  0.504983
			-0.912054  0.047684  0.407288
			-0.970084  0.112840  0.214951
			 0.962838  0.094708  0.252931
			 0.944565  0.187189  0.269736
			 0.872905  0.448561  0.191909
			 0.401063  0.914399 -0.054982
			 0.648698  0.760646  0.024666
			 0.836251  0.546211  0.048356
			-0.309238  0.787269 -0.533459
			-0.142232  0.721588 -0.677555
			-0.031601  0.597373 -0.801341
			-0.051739  0.983196 -0.175069
			-0.286952  0.932577 -0.218995
			-0.550897  0.776447 -0.306013
			-0.614325  0.669222 -0.418028
			 0.473170  0.852451 -0.222345
			 0.029485  0.989778 -0.139535
			 0.363527  0.920679 -0.142124
			 0.566807  0.777093 -0.273598
			 0.346622  0.908106 -0.234941
			 0.760922 -0.625578  0.172196
			 0.827904 -0.550702  0.106313
			 0.658736 -0.710420  0.247729
			 0.849030 -0.528344  0.000925
			 0.940273 -0.339479  0.025300
			 0.961002 -0.232266  0.150091
			 0.977244 -0.079534  0.196641
			 0.099973 -0.816433  0.568720
			 0.174099 -0.852799  0.492365
			 0.279334 -0.790595  0.544915
			 0.261559 -0.852058  0.453413
			-0.309854 -0.651483  0.692503
			-0.109296 -0.677256  0.727584
			 0.332724 -0.795560  0.506338
			 0.357397 -0.876190  0.323356
			 0.335443 -0.875800  0.347061
			 0.529745 -0.811902  0.245327
			-0.584702 -0.310055  0.749660
			-0.469913 -0.438515  0.766085
			-0.433784  0.578746 -0.690568
			-0.531944  0.570443 -0.625804
			-0.645649  0.487861 -0.587477
			-0.915401  0.163286 -0.367940
			-0.972811  0.116734 -0.200030
			-0.808299  0.298694 -0.507380
			-0.855419  0.162604 -0.491750
			-0.866358  0.084635 -0.492201
			-0.647878  0.554439 -0.522352
			-0.750720  0.434917 -0.497260
			-0.441984  0.666220 -0.600667
			-0.723536 -0.164714  0.670348
			-0.965422 -0.001228  0.260689
			-0.956660 -0.010272  0.291027
			-0.922599 -0.056320  0.381628
			-0.994723  0.079564  0.064779
			 0.987850  0.121456  0.096961
			 0.395879  0.917724  0.032601
			 0.573344  0.818836 -0.028010
			 0.270045  0.962499  0.025903
			 0.855706  0.498374 -0.139248
			 0.946790  0.314250 -0.069543
			-0.366028  0.858312 -0.359616
			-0.182115  0.945585 -0.269636
			-0.606975  0.661527 -0.440414
			-0.683151  0.620734 -0.384701
			-0.715065  0.572167 -0.401631
			-0.742224  0.527429 -0.413428
			 0.591236  0.795413 -0.133260
			 0.027769  0.955099 -0.294983
			 0.383655  0.901065 -0.202215
			 0.490079  0.870545 -0.044430
			 0.397453  0.914516 -0.075444
			 0.750693 -0.652186  0.105419
			 0.809265 -0.583986  0.063644
			 0.826220 -0.563310 -0.006470
			 0.688616 -0.721504  0.072393
			 0.782480 -0.608610 -0.131605
			 0.794042 -0.580807 -0.179336
			 0.735902 -0.664691 -0.128972
			 0.853445 -0.520714  0.022083
			 0.943853 -0.328601 -0.034086
			 0.986637 -0.109558  0.120600
			 0.987860 -0.154614 -0.015046
			 0.184928 -0.907538  0.377063
			-0.351417 -0.738656  0.575234
			-0.067772 -0.922800  0.379272
			 0.228252 -0.932391  0.280263
			 0.287693 -0.905418  0.312171
			-0.558634 -0.515029  0.650133
			 0.404833 -0.883936  0.234024
			 0.330769 -0.932602  0.144381
			 0.515953 -0.852054  0.088301
			 0.629718 -0.776817  0.003415
			-0.986545 -0.032043 -0.160317
			-0.909012  0.065544 -0.411583
			-0.824030  0.179179 -0.537466
			-0.787024  0.334330 -0.518476
			-0.837972  0.101902 -0.536115
			-0.825517  0.043609 -0.562690
			-0.903688 -0.032092 -0.426987
			-0.850031 -0.001711 -0.526730
			-0.819067  0.024921 -0.573156
			-0.771463  0.431647 -0.467468
			-0.826272 -0.277688  0.490066
			-0.882895 -0.157827  0.442251
			-0.994379 -0.052117 -0.092170
			-0.992881 -0.062756  0.101242
			 0.988945  0.090158 -0.117730
			 0.384665  0.921688  0.050245
			 0.711528  0.688649 -0.139613
			 0.206805  0.973474  0.097876
			 0.901081  0.366160 -0.232336
			-0.266553  0.803269 -0.532643
			-0.085598  0.899801 -0.427821
			-0.471237  0.651166 -0.594910
			-0.575425  0.484952 -0.658564
			-0.721783  0.497388 -0.481285
			 0.458512  0.886755  0.058582
			 0.226217  0.932966 -0.280002
			 0.312573  0.948840  0.044739
			 0.117835  0.955936 -0.268888
			 0.771312 -0.636457  0.000378
			 0.807702 -0.588990 -0.026608
			 0.700071 -0.701499 -0.133416
			 0.755314 -0.609491 -0.240875
			 0.684358 -0.673365 -0.279703
			 0.660148 -0.710804 -0.242822
			 0.677635 -0.715521 -0.169825
			 0.731097 -0.669516 -0.131323
			 0.808970 -0.585934 -0.047424
			 0.888006 -0.441421 -0.128812
			 0.978171 -0.161378 -0.130915
			 0.205533 -0.962925  0.174733
			-0.291362 -0.839171  0.459238
			-0.370879 -0.925959 -0.071055
			-0.038371 -0.995717 -0.084111
			 0.199808 -0.978097 -0.058346
			 0.235526 -0.971430 -0.029163
			 0.166424 -0.986019 -0.008315
			 0.249631 -0.947131  0.201563
			-0.673570 -0.695275  0.250791
			-0.916842 -0.387629  0.095632
			 0.424243 -0.896770 -0.125780
			 0.151337 -0.978387 -0.140914
			 0.537249 -0.837376 -0.100819
			 0.562864 -0.784009 -0.261753
			-0.976868 -0.044615 -0.209137
			-0.958278 -0.008413 -0.285715
			-0.826943  0.124941 -0.548229
			-0.768246  0.361726 -0.528159
			-0.787727  0.228313 -0.572153
			-0.770946 -0.084347 -0.631290
			-0.773280 -0.085961 -0.628211
			-0.863473 -0.053312 -0.501570
			-0.781026 -0.092761 -0.617571
			-0.808782 -0.018839 -0.587807
			-0.980310 -0.143447  0.135702
			-0.962809  0.045880 -0.266257
			-0.976536 -0.010983 -0.215075