<?xml version="1.0"?>
<VTKFile type="PolyData" version="0.1" byte_order="LittleEndian" compressor="vtkZLibDataCompressor">
	<PolyData>
		<Piece NumberOfPoints="571" NumberOfVerts="0" NumberOfLines="0" NumberOfStrips="0" NumberOfPolys="1142">
		<PointData Normals="Normals">
		<DataArray type="Float32" Name="Normals" NumberOfComponents="3" format="ascii">
			 0.307202 -0.944310 -0.117920
			 0.016613 -0.998886 -0.044174
			-0.082300 -0.852584 -0.516069
			 0.174030 -0.923482  0.341898
			 0.411429 -0.906425  0.095498
			 0.564026 -0.760687 -0.321294
			 0.592905 -0.656206 -0.466752
			 0.293852 -0.859520 -0.418183
			-0.041082 -0.901452  0.430924
			-0.459194 -0.869643  0.181280
			-0.501504 -0.832319 -0.236089
			 0.117540 -0.571258 -0.812310
			-0.472118 -0.692161 -0.545910
			-0.236004 -0.595947 -0.767561
			 0.322159 -0.873016  0.366137
			-0.043586 -0.559080  0.827967
			 0.645910 -0.759467  0.077527
			 0.674434 -0.653405 -0.343804
			 0.226790 -0.352036 -0.908095
			 0.859590 -0.469801 -0.200980
			 0.645401 -0.543647 -0.536568
			-0.415332 -0.661589  0.624339
			-0.624675 -0.736221  0.260307
			-0.569324 -0.553327  0.608029
			-0.782489 -0.472384 -0.405665
			-0.759186 -0.649239  0.046105
			-0.145312 -0.372613 -0.916539
			-0.514826 -0.478700 -0.711196
			 0.492781 -0.530419  0.689799
			 0.396148 -0.659712  0.638629
			 0.194599 -0.305482  0.932101
			-0.049235 -0.078586  0.995691
			-0.239339 -0.308236  0.920711
			 0.775358 -0.621408 -0.112576
			 0.717037 -0.592875  0.366548
			 0.492569 -0.376296 -0.784715
			 0.092069 -0.195802 -0.976312
			 0.025009 -0.107015 -0.993943
			 0.197540 -0.165526 -0.966219
			 0.858967 -0.474130 -0.193331
			 0.875268 -0.447461  0.183532
			 0.929994 -0.218871  0.295309
			 0.841217 -0.312438  0.441290
			 0.696259 -0.504140 -0.510946
			-0.232752 -0.176794  0.956332
			-0.567517 -0.367936  0.736578
			-0.851018 -0.433380  0.296564
			-0.584697 -0.303235 -0.752448
			-0.889549 -0.452462 -0.063087
			-0.959149 -0.266690  0.094389
			-0.816704 -0.224091 -0.531768
			-0.907538 -0.299122 -0.294788
			-0.265288 -0.229686 -0.936411
			 0.005836 -0.197113 -0.980363
			 0.245501 -0.170324  0.954316
			 0.559434 -0.195508  0.805488
			-0.063359  0.101245  0.992842
			 0.023870  0.095815  0.995113
			 0.161932  0.140499  0.976749
			 0.831494 -0.307220 -0.462855
			 0.591172 -0.182061 -0.785729
			 0.101352 -0.110670 -0.988676
			-0.019668 -0.113760 -0.993314
			-0.041005 -0.089578 -0.995135
			-0.080509 -0.110459 -0.990614
			 0.123350 -0.047950 -0.991204
			 0.063471 -0.070620 -0.995482
			 0.340413 -0.102465 -0.934676
			 0.952307 -0.280663 -0.119750
			 0.982301 -0.173063  0.071648
			 0.802139 -0.061850  0.593925
			 0.625833 -0.095484  0.774091
			 0.428755  0.046733  0.902211
			 0.454234  0.014095  0.890771
			-0.387020 -0.071553  0.919291
			-0.829120 -0.204135  0.520470
			-0.733254  0.113616  0.670396
			-0.440149 -0.197759 -0.875877
			-0.749136 -0.266529 -0.606430
			-0.964835 -0.181942 -0.189710
			-0.878189  0.040429  0.476601
			 0.204739  0.158554  0.965889
			-0.256732  0.216610  0.941896
			-0.266244  0.260228  0.928114
			 0.271629  0.083031  0.958813
			 0.166831 -0.050596  0.984687
			-0.077829  0.000188  0.996967
			-0.151276  0.024150  0.988197
			 0.763128 -0.295457 -0.574753
			 0.513832 -0.038469 -0.857028
			-0.037390 -0.110845 -0.993134
			 0.000126 -0.145193 -0.989403
			 0.252429 -0.034152 -0.967012
			 0.033371 -0.131132 -0.990803
			 0.032339 -0.059115 -0.997727
			 0.780377  0.161141  0.604190
			 0.953821 -0.278687 -0.112062
			 0.862392  0.071490  0.501167
			 0.495511  0.204072  0.844289
			 0.307604  0.161263  0.937749
			-0.464829  0.203335  0.861736
			-0.670508  0.263448  0.693552
			-0.573014 -0.245194 -0.782007
			-0.360530 -0.155951 -0.919618
			-0.890152 -0.316824 -0.327494
			-0.694826 -0.278306 -0.663146
			-0.962914 -0.082603  0.256853
			-0.806253  0.077502  0.586472
			-0.612323  0.144361  0.777316
			-0.762026  0.079242  0.642679
			-0.465876  0.056673  0.883034
			 0.376289 -0.016372  0.926358
			-0.195980 -0.061539  0.978675
			 0.509742 -0.058377  0.858345
			 0.252708 -0.084481  0.963847
			-0.007443 -0.095331  0.995418
			-0.289986  0.002816  0.957027
			 0.529534  0.059766 -0.846181
			 0.565777 -0.201110 -0.799657
			 0.969739 -0.092070 -0.226116
			 0.400134  0.026774 -0.916065
			 0.107900 -0.225741 -0.968193
			 0.042613 -0.203956 -0.978052
			 0.323207 -0.122662 -0.938345
			-0.087180 -0.226533 -0.970094
			-0.269406  0.015444 -0.962903
			-0.269564 -0.061465 -0.961019
			-0.029202 -0.018327 -0.999405
			 0.563030  0.205091  0.800584
			 0.953783  0.133771  0.269078
			 0.819583  0.101458  0.563906
			 0.673558  0.110632  0.730808
			 0.517568  0.023714  0.855313
			-0.793707 -0.081665 -0.602794
			-0.557758 -0.102321 -0.823673
			-0.936731 -0.194137 -0.291282
			-0.827927  0.149431  0.540562
			-0.996827  0.033109  0.072379
			-0.628233  0.023221  0.777679
			-0.547498 -0.003080  0.836801
			-0.724858 -0.008480  0.688846
			-0.946024  0.084665  0.312842
			-0.980259  0.194704  0.034400
			-0.962628  0.228835  0.144851
			-0.383123 -0.049513  0.922369
			-0.079814 -0.088287  0.992892
			 0.463224 -0.123536  0.877589
			 0.715175 -0.078954  0.694472
			 0.228399 -0.137064  0.963871
			 0.897703  0.090222 -0.431264
			 0.555488 -0.000235 -0.831524
			 0.841975  0.216929 -0.493984
			 0.968548  0.242111 -0.057420
			 0.738190  0.170750 -0.652626
			 0.294440 -0.205717 -0.933266
			 0.027209 -0.290619 -0.956452
			 0.201823 -0.290070 -0.935482
			 0.663713 -0.176557 -0.726851
			-0.273157 -0.236258 -0.932506
			-0.195607 -0.172209 -0.965444
			-0.786073  0.056184 -0.615575
			-0.618537  0.303594 -0.724736
			-0.566543  0.122467 -0.814881
			-0.594383 -0.143811 -0.791219
			 0.937542 -0.001196  0.347870
			 0.979934  0.101615  0.171478
			-0.607640 -0.084614  0.789693
			-0.901953 -0.025347  0.431090
			-0.905637  0.367864 -0.210945
			-0.992868 -0.042589 -0.111351
			-0.843378  0.374845 -0.384975
			-0.305268 -0.123922  0.944169
			 0.007845 -0.161424  0.986854
			 0.609709 -0.134863  0.781068
			 0.544860 -0.185942  0.817651
			 0.472160 -0.211690  0.855717
			 0.793734 -0.136877  0.592665
			 0.919882 -0.115548  0.374787
			 0.224894 -0.173962  0.958728
			 0.907483 -0.127278 -0.400344
			 0.951313  0.175721 -0.253231
			 0.248651 -0.264756 -0.931707
			 0.494082 -0.196346 -0.846954
			 0.773087 -0.219379 -0.595155
			 0.261922 -0.296541 -0.918401
			-0.104914 -0.268315 -0.957601
			-0.109418 -0.281741 -0.953231
			-0.213596 -0.282522 -0.935178
			-0.477565 -0.208168 -0.853580
			-0.820140  0.282250 -0.497700
			-0.807696  0.012014 -0.589477
			-0.723484 -0.199306 -0.660945
			 0.997749 -0.066150 -0.010998
			-0.686346 -0.117225  0.717766
			-0.594633 -0.130904  0.793269
			-0.410524 -0.155144  0.898555
			-0.800483 -0.091083  0.592394
			-0.701077 -0.097968  0.706323
			-0.978004 -0.093215  0.186599
			-0.920544 -0.152851 -0.359492
			-0.186331 -0.155577  0.970091
			 0.120966 -0.202184  0.971848
			 0.833098 -0.199062  0.516065
			 0.496992 -0.306196  0.811938
			 0.250597 -0.342926  0.905319
			 0.679939 -0.275942  0.679366
			 0.949895 -0.150205  0.274112
			 0.983967 -0.176413 -0.026211
			 0.958509 -0.223920 -0.176408
			 0.908803 -0.228583 -0.349036
			 0.895988 -0.232397 -0.378414
			 0.209660 -0.139273 -0.967805
			 0.440431 -0.029456 -0.897303
			 0.830718 -0.193118 -0.522123
			 0.662083 -0.048880 -0.747834
			 0.061820 -0.216716 -0.974275
			-0.179532 -0.177550 -0.967597
			-0.161125 -0.241412 -0.956953
			-0.755590 -0.238998 -0.609888
			-0.087650 -0.071567 -0.993577
			-0.254122  0.011697 -0.967101
			-0.735492 -0.257138 -0.626843
			-0.479904 -0.087990 -0.872897
			-0.625304 -0.211217  0.751254
			-0.751965 -0.165791  0.638014
			-0.818339 -0.095839  0.566689
			-0.314264 -0.184306  0.931273
			-0.495819 -0.213464  0.841782
			-0.140860 -0.177342  0.974017
			-0.194360 -0.301158  0.933557
			-0.923639 -0.154489  0.350749
			-0.981519 -0.168121 -0.091413
			-0.894011 -0.199902 -0.400978
			 0.969527 -0.244717  0.011428
			 0.800734 -0.293312  0.522296
			 0.880476 -0.290628  0.374562
			 0.518235 -0.407623  0.751849
			 0.364415 -0.506918  0.781176
			 0.329519 -0.421253  0.844963
			 0.206728 -0.453471  0.866965
			 0.675329 -0.338473  0.655261
			 0.652271 -0.350708  0.671972
			 0.934638 -0.255412 -0.247421
			 0.843720 -0.215060 -0.491818
			-0.076651 -0.000579 -0.997058
			 0.277154 -0.029844 -0.960362
			 0.586474  0.001327 -0.809967
			 0.621085 -0.044465 -0.782481
			 0.538806  0.108777 -0.835378
			-0.263762  0.094669 -0.959931
			-0.258852  0.180411 -0.948919
			-0.780363 -0.186449 -0.596884
			-0.364147  0.086508 -0.927315
			-0.665104 -0.369615  0.648861
			-0.496874 -0.277459  0.822273
			-0.877938 -0.227711  0.421155
			-0.069645 -0.429988  0.900145
			-0.471556 -0.419770  0.775518
			-0.244409 -0.413668  0.877008
			-0.972594 -0.226561  0.052266
			-0.941561 -0.223021 -0.252437
			 0.940555 -0.283054 -0.187718
			 0.883990 -0.419540  0.206273
			 0.700511 -0.432463  0.567679
			 0.623398 -0.482193  0.615520
			 0.581706 -0.532143  0.615177
			 0.188476 -0.480072  0.856742
			 0.328471 -0.468294  0.820248
			 0.551233 -0.468196  0.690604
			 0.055081 -0.464837  0.883681
			 0.162676 -0.413775  0.895727
			 0.271558 -0.278540  0.921234
			 0.586048 -0.434194  0.684122
			 0.513297 -0.503932  0.694679
			 0.822726 -0.187337 -0.536681
			 0.134601  0.031613 -0.990395
			-0.052141  0.054632 -0.997144
			 0.452220 -0.001517 -0.891905
			 0.525493  0.089268 -0.846102
			 0.512508  0.005641 -0.858664
			 0.548157  0.074229 -0.833075
			 0.556329 -0.008119 -0.830923
			-0.253882  0.020043 -0.967027
			-0.266469  0.169324 -0.948854
			-0.381100  0.002928 -0.924529
			-0.878534 -0.406821 -0.250349
			-0.537516 -0.024738 -0.842891
			-0.806276 -0.332531  0.489226
			-0.667626 -0.362464  0.650304
			-0.669907 -0.449449  0.590949
			-0.731621 -0.352864  0.583282
			-0.585040 -0.471213  0.660065
			-0.547689 -0.492584  0.676312
			-0.723118 -0.386230  0.572649
			-0.941076 -0.308826  0.137851
			-0.053876 -0.455632  0.888537
			-0.308418 -0.505604  0.805756
			 0.814677 -0.397074 -0.422650
			 0.728131 -0.570916  0.379316
			 0.814847 -0.579286  0.021247
			 0.651996 -0.553565  0.518137
			 0.562976 -0.537159  0.628107
			 0.725454 -0.366321  0.582687
			 0.302319 -0.324628  0.896225
			 0.567731 -0.255824  0.782455
			 0.054472 -0.355810  0.932969
			 0.119862 -0.159234  0.979938
			 0.266999  0.081943  0.960207
			 0.430394 -0.124165  0.894060
			 0.385953  0.060776  0.920515
			 0.440141 -0.515337  0.735326
			 0.554942 -0.622766  0.551545
			-0.078593  0.151844 -0.985275
			 0.151581  0.172519 -0.973273
			 0.562032  0.194207 -0.803992
			 0.426535 -0.254893 -0.867812
			 0.210968 -0.225360 -0.951160
			 0.325636  0.102618 -0.939910
			-0.133996  0.134882 -0.981760
			-0.352336 -0.044082 -0.934835
			-0.144724  0.107193 -0.983649
			-0.165492 -0.029874 -0.985758
			-0.916555 -0.391363  0.082226
			-0.800292 -0.426990 -0.420966
			-0.595353 -0.257596 -0.761051
			-0.820325 -0.457955  0.342555
			-0.812878 -0.182042  0.553254
			-0.731146 -0.531361  0.427880
			-0.852526 -0.043346  0.520885
			-0.812645 -0.438122  0.384262
			-0.851147 -0.223163  0.475128
			-0.637102 -0.501524  0.585300
			-0.539261 -0.486159  0.687639
			-0.900775 -0.081222  0.426622
			-0.814018 -0.224313  0.535778
			-0.925299 -0.332859  0.181731
			-0.146478 -0.277100  0.949610
			-0.046275 -0.316817  0.947357
			-0.296306 -0.296057  0.908049
			 0.827875 -0.556266 -0.072051
			 0.670677 -0.478218 -0.567010
			 0.770587 -0.595244  0.227773
			 0.801665 -0.596158  0.043929
			 0.578679 -0.478620  0.660344
			 0.334724 -0.559680  0.758101
			 0.714117 -0.020863  0.699715
			 0.880713  0.001090  0.473649
			 0.832295 -0.110986  0.543109
			 0.560600  0.082949  0.823922
			 0.032875 -0.204444  0.978326
			-0.043056 -0.108526  0.993161
			 0.121507  0.119702  0.985346
			 0.427778  0.332478  0.840515
			 0.314407  0.276747  0.908053
			 0.692631 -0.357672  0.626365
			 0.368323 -0.525189  0.767147
			 0.862736 -0.457168  0.216066
			 0.887952 -0.231401  0.397485
			 0.020595  0.183231 -0.982854
			 0.174791  0.218568 -0.960040
			 0.698935 -0.515941 -0.495273
			 0.214301 -0.362783 -0.906898
			 0.359525  0.230747 -0.904156
			 0.057710  0.222801 -0.973154
			 0.435961  0.252887 -0.863705
			-0.048099 -0.002105 -0.998840
			-0.154621  0.089968 -0.983869
			-0.029930  0.228945 -0.972979
			 0.227347  0.207216 -0.951512
			-0.098711  0.206354 -0.973486
			-0.229945  0.255129 -0.939167
			-0.275899 -0.131811 -0.952106
			-0.101848 -0.174616 -0.979355
			-0.113873 -0.166235 -0.979489
			-0.884139 -0.444021  0.145412
			-0.310154 -0.278081 -0.909107
			-0.867173 -0.293394 -0.402406
			-0.503778 -0.226588 -0.833586
			-0.919125 -0.381441 -0.098544
			-0.818692 -0.543372  0.185716
			-0.854891  0.020778  0.518391
			-0.901704 -0.054850  0.428861
			-0.885708 -0.463996  0.015162
			-0.960515 -0.250628  0.120820
			-0.970228  0.044830  0.238009
			-0.888312  0.185467  0.420124
			-0.689883 -0.419560  0.589941
			-0.612875 -0.206393  0.762749
			-0.385792 -0.196314  0.901457
			-0.801804  0.089627  0.590828
			-0.861497  0.237714  0.448681
			-0.259203 -0.105175  0.960079
			 0.840031 -0.538400 -0.066883
			 0.546118 -0.359150  0.756814
			 0.803704  0.267538  0.531491
			 0.661125  0.509426  0.550816
			 0.778998  0.564267  0.273433
			 0.943159  0.233559  0.236437
			 0.810052  0.011426  0.586247
			 0.898395  0.281780  0.336877
			 0.539763  0.388992  0.746553
			 0.020591 -0.021082  0.999566
			 0.274999  0.271253  0.922387
			 0.059136  0.239789  0.969022
			 0.184435  0.229154  0.955757
			 0.429726  0.502977  0.749900
			 0.497370  0.809274  0.312569
			 0.930878 -0.352760 -0.095007
			 0.979348 -0.188406  0.073352
			 0.948357  0.053323  0.312691
			 0.841002  0.225524  0.491786
			 0.480363 -0.374033 -0.793317
			 0.835080 -0.390211 -0.387786
			 0.645001 -0.242163 -0.724797
			 0.247317 -0.143969 -0.958179
			-0.083807  0.070154 -0.994009
			 0.407975  0.234679 -0.882316
			 0.199557  0.147445 -0.968730
			 0.041281  0.008862 -0.999108
			 0.037266 -0.072660 -0.996660
			-0.009069  0.003700 -0.999952
			-0.030957  0.183392 -0.982552
			 0.251736  0.122003 -0.960075
			 0.240356  0.131491 -0.961738
			-0.056696  0.274532 -0.959905
			 0.134518  0.254061 -0.957788
			-0.135068  0.270224 -0.953276
			-0.108007 -0.192278 -0.975379
			-0.900214 -0.435445 -0.001307
			-0.896671 -0.232268 -0.376871
			-0.671936 -0.147985 -0.725674
			-0.302714 -0.001539 -0.953080
			-0.929433  0.180939  0.321583
			-0.916449  0.147278  0.372064
			-0.988493 -0.101465 -0.112189
			-0.914775  0.303012  0.267154
			-0.972907  0.192536 -0.127996
			-0.886100  0.396925  0.239325
			-0.630067  0.159897  0.759900
			-0.676947  0.598228  0.428797
			-0.488685  0.842825  0.225463
			-0.695457  0.659692  0.284862
			-0.454467  0.306642  0.836319
			-0.104456  0.235337  0.966284
			 0.461011  0.884662  0.069590
			 0.701216  0.709737  0.067593
			 0.756829  0.586452  0.288590
			 0.232744  0.509701  0.828272
			-0.083723  0.443217  0.892496
			-0.086639  0.621620  0.778513
			 0.446439  0.868901  0.213785
			 0.426701  0.847092  0.316800
			 0.370154  0.925303 -0.082463
			 0.365200  0.929693  0.047950
			 0.890690 -0.098077 -0.443906
			 0.992099  0.116415 -0.046765
			 0.821106  0.485967  0.299369
			 0.475084  0.015137 -0.879810
			 0.224271  0.059455 -0.972711
			-0.205962  0.025875 -0.978218
			-0.269995  0.053253 -0.961388
			-0.103297 -0.012622 -0.994571
			 0.117756  0.029962 -0.992590
			 0.110286  0.196586 -0.974264
			 0.354911  0.185318 -0.916349
			 0.077286  0.030271 -0.996549
			-0.112026  0.104042 -0.988244
			 0.096891  0.024652 -0.994990
			-0.038821  0.029940 -0.998798
			 0.215432  0.181184 -0.959563
			-0.026027  0.106690 -0.993952
			-0.585320  0.024686 -0.810427
			-0.878995 -0.021972 -0.476325
			-0.697402  0.704633  0.130855
			-0.884750  0.443118  0.144442
			-0.793182  0.171732 -0.584270
			-0.825377  0.532165 -0.188554
			-0.741746  0.666478  0.074970
			-0.560889  0.750094  0.350376
			-0.329656  0.944077 -0.006742
			-0.203202  0.977608 -0.054696
			-0.280621  0.940141  0.193355
			-0.239236  0.591238  0.770197
			-0.395196  0.704543  0.589439
			 0.331572  0.939546  0.085521
			 0.429012  0.900644  0.069204
			 0.696165  0.716390  0.046249
			 0.453527  0.882765  0.122637
			 0.603026  0.797685 -0.007651
			 0.711802  0.702307  0.010104
			 0.620106  0.726117  0.297024
			 0.003364  0.956534  0.291600
			 0.291729  0.955590  0.041738
			-0.252325  0.873469  0.416394
			-0.179123  0.977310  0.113045
			 0.145919  0.973121 -0.178165
			 0.270643  0.960942 -0.057813
			 0.437430  0.877367  0.197187
			 0.652857  0.157937 -0.740833
			 0.823645  0.309409 -0.475263
			 0.840737  0.512743 -0.173944
			 0.780154  0.401465 -0.479776
			-0.184975  0.082514 -0.979273
			-0.066733  0.130402 -0.989213
			 0.061019  0.295589 -0.953365
			 0.285328  0.424502 -0.859294
			 0.557753  0.496414 -0.665195
			-0.068409  0.135092 -0.988469
			 0.014590  0.257478 -0.966174
			-0.442772  0.112532 -0.889545
			-0.028756  0.280333 -0.959472
			-0.288613 -0.089621 -0.953242
			-0.024530  0.497880 -0.866899
			 0.026348  0.309201 -0.950631
			 0.018658  0.299397 -0.953946
			-0.321429  0.946705  0.020810
			-0.419759  0.907635  0.000919
			-0.273565  0.947449  0.165837
			-0.642051  0.394113 -0.657606
			-0.454037  0.879050 -0.145335
			-0.649240  0.666306 -0.366775
			-0.317305  0.908089  0.273298
			-0.224305  0.972601 -0.061115
			-0.080031  0.993082  0.085921
			-0.212281  0.969933  0.119022
			-0.170925  0.981417 -0.087208
			 0.516257  0.842889  0.151711
			 0.518406  0.847205 -0.116183
			 0.581216  0.685920 -0.437839
			 0.681647  0.655202 -0.325682
			-0.004971  0.988901 -0.148491
			 0.169127  0.967809  0.186389
			 0.471574  0.820035  0.324284
			 0.533026  0.795709  0.287627
			 0.525367  0.850339  0.030210
			 0.172492  0.355339 -0.918685
			 0.040877  0.496719 -0.866949
			 0.161320  0.681987 -0.713351
			 0.041854  0.503567 -0.862942
			 0.063079  0.587174 -0.806999
			 0.441171  0.748755 -0.494706
			 0.435282  0.689792 -0.578547
			-0.237019  0.594305 -0.768520
			 0.100078  0.554245 -0.826315
			-0.282261  0.644731 -0.710387
			-0.154389  0.512819 -0.844500
			-0.350579  0.667940 -0.656468
			-0.137835  0.828908 -0.542137
			-0.174222  0.969882  0.170220
			-0.345561  0.938218  0.018307
			-0.264469  0.949579  0.168391
			-0.261730  0.897080  0.356012
			-0.170126  0.966437  0.192502
			 0.569999  0.821577  0.010615
			-0.030266  0.930388  0.365325
			 0.228565  0.904467  0.360135
			 0.279969  0.956933  0.076785
			 0.437502  0.857903 -0.269435
			 0.241094  0.891693 -0.383090
			 0.251823  0.763349 -0.594882
			-0.039588  0.647774 -0.760803
			 0.208126  0.941304 -0.265765
			-0.019348  0.868537 -0.495247
			-0.283671  0.816081 -0.503530
			-0.494992  0.863227  0.099107
			-0.455658  0.807351 -0.374914
			-0.153353  0.968475 -0.196314
			-0.344467  0.775258  0.529450
			-0.012351  0.939992  0.340973
			 0.154627  0.920295  0.359371
			-0.174434  0.981409 -0.080053
		</DataArray>
	</PointData>
	<Points>
		<DataArray type="Float32" NumberOfComponents="3" format="ascii">
			-0.000541 -0.021947 -0.001185
			-0.001120 -0.022095 -0.001092
			-0.001087 -0.021774 -0.001927
			-0.000629 -0.021841 -0.000692
			 0.000079 -0.021770 -0.000961
			 0.000322 -0.021491 -0.001339
			 0.000349 -0.021018 -0.002181
			-0.000457 -0.021893 -0.001687
			-0.001208 -0.022002 -0.000599
			-0.001710 -0.021942 -0.001015
			-0.001922 -0.021806 -0.001479
			-0.000730 -0.021144 -0.002507
			-0.002144 -0.021397 -0.001959
			-0.001778 -0.021035 -0.002521
			-0.000427 -0.021671 -0.000246
			-0.000852 -0.021443 -0.000035
			 0.000526 -0.021406 -0.000886
			 0.000723 -0.021008 -0.001589
			 0.000228 -0.019983 -0.002870
			 0.001325 -0.020260 -0.001397
			 0.000760 -0.020586 -0.002140
			-0.001802 -0.021734 -0.000529
			-0.002185 -0.021575 -0.000851
			-0.002240 -0.021140 -0.000340
			-0.002812 -0.020669 -0.001965
			-0.002653 -0.021172 -0.001250
			-0.001793 -0.020454 -0.002835
			-0.002375 -0.020660 -0.002457
			 0.000465 -0.020882 -0.000099
			 0.000022 -0.021347 -0.000169
			-0.000243 -0.020962  0.000171
			-0.000590 -0.020417  0.000236
			-0.001461 -0.020909  0.000030
			 0.000931 -0.020989 -0.001133
			 0.000878 -0.020992 -0.000607
			 0.000965 -0.019384 -0.002858
			-0.000644 -0.019652 -0.003044
			 0.000013 -0.019214 -0.003018
			 0.000700 -0.018803 -0.003095
			 0.001532 -0.019657 -0.001813
			 0.001248 -0.020510 -0.000883
			 0.001740 -0.019051 -0.001088
			 0.001505 -0.019770 -0.000692
			 0.001187 -0.019821 -0.002377
			-0.001784 -0.020516  0.000020
			-0.002546 -0.020725 -0.000320
			-0.002853 -0.020786 -0.000858
			-0.002550 -0.020025 -0.002649
			-0.003099 -0.020519 -0.001354
			-0.003276 -0.020028 -0.001229
			-0.003112 -0.019532 -0.002246
			-0.003236 -0.019819 -0.001771
			-0.001982 -0.019693 -0.003013
			-0.001406 -0.019696 -0.003105
			 0.000174 -0.020395  0.000214
			 0.000816 -0.020455 -0.000105
			-0.001729 -0.019694  0.000042
			-0.000489 -0.018541 -0.000103
			-0.000118 -0.019990  0.000246
			 0.001626 -0.019214 -0.002315
			 0.001396 -0.018698 -0.002793
			-0.001038 -0.019273 -0.003096
			-0.001513 -0.018915 -0.003216
			 0.000280 -0.018025 -0.003179
			-0.000039 -0.016818 -0.003191
			-0.001010 -0.018072 -0.003176
			-0.000328 -0.017627 -0.003126
			 0.001096 -0.017968 -0.003074
			 0.001829 -0.019051 -0.001869
			 0.001985 -0.018313 -0.001414
			 0.001750 -0.018570 -0.000809
			 0.001296 -0.019472 -0.000305
			 0.001019 -0.018862 -0.000269
			 0.000887 -0.019760 -0.000067
			-0.002285 -0.020132  0.000000
			-0.002939 -0.020302 -0.000554
			-0.003010 -0.019486 -0.000536
			-0.002541 -0.019280 -0.002918
			-0.003017 -0.018936 -0.002470
			-0.003463 -0.018993 -0.001698
			-0.003321 -0.019213 -0.001006
			 0.000579 -0.019228 -0.000052
			-0.001760 -0.018925 -0.000124
			-0.002076 -0.019313 -0.000009
			 0.000077 -0.017983 -0.000220
			-0.000326 -0.015595 -0.000052
			-0.000696 -0.016827 -0.000040
			-0.001101 -0.017725 -0.000064
			 0.001877 -0.017961 -0.002429
			 0.001400 -0.017114 -0.002963
			-0.001730 -0.018122 -0.003269
			 0.000257 -0.016423 -0.003280
			 0.000813 -0.017208 -0.003242
			-0.001180 -0.016480 -0.003295
			-0.001966 -0.017337 -0.003352
			 0.001801 -0.017823 -0.001073
			 0.002085 -0.017948 -0.001973
			 0.002046 -0.017506 -0.001449
			 0.001386 -0.018110 -0.000556
			 0.000568 -0.018093 -0.000379
			-0.002510 -0.018665 -0.000584
			-0.003112 -0.018755 -0.000843
			-0.002658 -0.018405 -0.003041
			-0.002596 -0.017347 -0.003303
			-0.003456 -0.018290 -0.002282
			-0.003318 -0.018042 -0.002744
			-0.003503 -0.018524 -0.001461
			-0.003361 -0.017676 -0.001352
			-0.002851 -0.017953 -0.000923
			-0.003059 -0.015998 -0.001205
			-0.001962 -0.018161 -0.000292
			 0.000330 -0.016774 -0.000330
			-0.001442 -0.015666 -0.000166
			 0.000654 -0.015647 -0.000380
			-0.000026 -0.015190 -0.000101
			-0.000808 -0.015190  0.000008
			-0.001603 -0.016426 -0.000234
			 0.001571 -0.016281 -0.002917
			 0.001764 -0.017438 -0.002697
			 0.002173 -0.017284 -0.002168
			 0.000925 -0.016355 -0.003113
			 0.000009 -0.015265 -0.003484
			-0.000476 -0.016074 -0.003396
			 0.000513 -0.015785 -0.003336
			-0.001200 -0.015331 -0.003566
			-0.002632 -0.016549 -0.003358
			-0.002121 -0.015313 -0.003376
			-0.002307 -0.016142 -0.003402
			 0.001225 -0.017341 -0.000710
			 0.002119 -0.016753 -0.001694
			 0.001711 -0.015900 -0.001488
			 0.001293 -0.016591 -0.000961
			 0.000780 -0.016497 -0.000535
			-0.003556 -0.017219 -0.002681
			-0.003252 -0.016887 -0.003008
			-0.003761 -0.017525 -0.002272
			-0.003512 -0.016534 -0.001631
			-0.003803 -0.017058 -0.002036
			-0.002715 -0.016712 -0.000870
			-0.002313 -0.016204 -0.000543
			-0.002875 -0.014281 -0.000893
			-0.003204 -0.015253 -0.001451
			-0.003747 -0.016310 -0.002296
			-0.003505 -0.015572 -0.002118
			-0.001725 -0.014875 -0.000217
			-0.000706 -0.013938  0.000108
			 0.000142 -0.013670 -0.000006
			 0.001118 -0.014083 -0.000609
			 0.000050 -0.012672  0.000172
			 0.002078 -0.016556 -0.002485
			 0.001082 -0.015518 -0.003049
			 0.001803 -0.015707 -0.002556
			 0.002015 -0.015832 -0.002092
			 0.001371 -0.015025 -0.002761
			 0.000553 -0.015237 -0.003452
			-0.000599 -0.014941 -0.003715
			 0.000379 -0.014085 -0.003697
			 0.000945 -0.014972 -0.003287
			-0.001438 -0.014158 -0.003722
			-0.001739 -0.014930 -0.003518
			-0.003432 -0.016049 -0.002896
			-0.003105 -0.015672 -0.003058
			-0.002386 -0.014870 -0.003203
			-0.002249 -0.014101 -0.003395
			 0.001589 -0.014643 -0.001340
			 0.001653 -0.015106 -0.001559
			-0.002312 -0.012639 -0.000362
			-0.003130 -0.013991 -0.001310
			-0.003229 -0.015081 -0.002187
			-0.003232 -0.013755 -0.001943
			-0.003522 -0.015593 -0.002700
			-0.001510 -0.012921  0.000027
			-0.000540 -0.012673  0.000253
			 0.001134 -0.012366 -0.000362
			 0.000615 -0.012057  0.000002
			 0.000701 -0.010398  0.000361
			 0.001375 -0.012999 -0.000713
			 0.001620 -0.014063 -0.001332
			-0.000013 -0.011526  0.000373
			 0.001458 -0.014165 -0.002601
			 0.001606 -0.014862 -0.002174
			 0.000690 -0.013518 -0.003825
			 0.000958 -0.012783 -0.003909
			 0.001142 -0.014350 -0.003257
			 0.000032 -0.013768 -0.003987
			-0.001126 -0.013786 -0.003897
			-0.000504 -0.014026 -0.003945
			-0.001522 -0.013407 -0.004023
			-0.002183 -0.012491 -0.003956
			-0.003141 -0.015182 -0.002681
			-0.002696 -0.014395 -0.002903
			-0.002623 -0.013643 -0.003150
			 0.001728 -0.013949 -0.001815
			-0.002830 -0.010848 -0.000557
			-0.002458 -0.011257 -0.000295
			-0.001680 -0.011614  0.000133
			-0.003112 -0.012712 -0.001091
			-0.002854 -0.012208 -0.000759
			-0.003325 -0.012438 -0.001568
			-0.003243 -0.012693 -0.002552
			-0.000951 -0.012271  0.000287
			-0.000013 -0.010285  0.000620
			 0.001994 -0.011308 -0.001102
			 0.000847 -0.009765  0.000464
			 0.000326 -0.009220  0.000871
			 0.001881 -0.010380 -0.000654
			 0.001944 -0.012203 -0.001402
			 0.001837 -0.013112 -0.001748
			 0.001813 -0.012863 -0.002344
			 0.001766 -0.012585 -0.002826
			 0.001519 -0.013416 -0.002857
			 0.000233 -0.012603 -0.004230
			 0.000728 -0.012147 -0.004117
			 0.001404 -0.013151 -0.003380
			 0.001305 -0.012026 -0.003732
			-0.000116 -0.013106 -0.004220
			-0.001414 -0.012646 -0.004169
			-0.001055 -0.013034 -0.004146
			-0.002610 -0.012906 -0.003445
			-0.000628 -0.012252 -0.004329
			-0.002012 -0.011840 -0.004119
			-0.002758 -0.012135 -0.003590
			-0.002531 -0.011802 -0.003906
			-0.002490 -0.009816 -0.000021
			-0.003169 -0.010615 -0.000850
			-0.003168 -0.011955 -0.001089
			-0.001499 -0.010203  0.000482
			-0.001826 -0.010684  0.000248
			-0.001019 -0.011431  0.000391
			-0.000907 -0.009783  0.000720
			-0.003357 -0.011280 -0.001266
			-0.003412 -0.011809 -0.002263
			-0.003221 -0.011954 -0.002840
			 0.001985 -0.012368 -0.002031
			 0.002292 -0.010395 -0.001167
			 0.002246 -0.010989 -0.001472
			 0.001151 -0.008864  0.000689
			 0.001618 -0.007856  0.001047
			 0.000752 -0.008197  0.001193
			 0.000353 -0.007538  0.001698
			 0.002073 -0.009523 -0.000520
			 0.002458 -0.009138 -0.000781
			 0.002118 -0.011648 -0.002412
			 0.001886 -0.011831 -0.003076
			-0.000426 -0.011430 -0.004327
			 0.000124 -0.011547 -0.004349
			 0.000914 -0.011445 -0.003984
			 0.001607 -0.011535 -0.003461
			 0.001299 -0.010340 -0.003520
			-0.001297 -0.010595 -0.004131
			-0.002078 -0.010640 -0.003923
			-0.003043 -0.011324 -0.003564
			-0.002696 -0.010981 -0.003856
			-0.003444 -0.008445 -0.000304
			-0.002334 -0.009025  0.000428
			-0.003594 -0.010366 -0.001397
			-0.000574 -0.008533  0.001243
			-0.002119 -0.008493  0.000817
			-0.001191 -0.008792  0.001026
			-0.003629 -0.010944 -0.002043
			-0.003394 -0.011329 -0.002717
			 0.002471 -0.010705 -0.002147
			 0.002626 -0.010234 -0.001748
			 0.002643 -0.009676 -0.001181
			 0.001696 -0.008437  0.000560
			 0.002192 -0.007537  0.000943
			 0.001011 -0.006909  0.001819
			 0.001673 -0.007052  0.001638
			 0.002219 -0.007126  0.001240
			-0.000144 -0.007351  0.001849
			 0.000377 -0.007032  0.001987
			 0.000976 -0.006211  0.002174
			 0.002466 -0.008689 -0.000503
			 0.003158 -0.008829 -0.001064
			 0.002082 -0.011008 -0.003067
			 0.000088 -0.011012 -0.004354
			-0.000216 -0.010611 -0.004337
			 0.000718 -0.010930 -0.004135
			 0.000628 -0.009711 -0.004131
			 0.001761 -0.010697 -0.003392
			 0.001186 -0.009510 -0.003445
			 0.002095 -0.010219 -0.003167
			-0.001278 -0.009782 -0.004139
			-0.002420 -0.010104 -0.003654
			-0.001932 -0.009993 -0.003822
			-0.003722 -0.010315 -0.002733
			-0.003104 -0.010531 -0.003638
			-0.003846 -0.009130 -0.001164
			-0.004553 -0.007369 -0.000709
			-0.004130 -0.008152 -0.000858
			-0.004215 -0.006895 -0.000111
			-0.003260 -0.008021  0.000143
			-0.002564 -0.007675  0.000994
			-0.003912 -0.006606  0.000555
			-0.003816 -0.010090 -0.001863
			-0.000663 -0.007138  0.001982
			-0.002039 -0.007170  0.001699