<?xml version="1.0"?>
<VTKFile type="PolyData" version="0.1" byte_order="LittleEndian" compressor="vtkZLibDataCompressor">
	<PolyData>
		<Piece NumberOfPoints="381" NumberOfVerts="0" NumberOfLines="0" NumberOfStrips="0" NumberOfPolys="768">
		<PointData Normals="Normals">
		<DataArray type="Float32" Name="Normals" NumberOfComponents="3" format="ascii">
			-0.067046 -0.412476  0.908498
			 0.055068 -0.669208  0.741032
			 0.299807 -0.431113  0.851033
			-0.189803 -0.453060  0.871040
			-0.078117 -0.140351  0.987015
			-0.245872 -0.321574  0.914405
			 0.239243 -0.963327  0.121509
			-0.164713 -0.765862  0.621551
			 0.450100 -0.767258  0.456864
			 0.740375 -0.592718  0.317066
			 0.700830 -0.408708  0.584633
			 0.284677 -0.063565  0.956514
			-0.422234 -0.584085  0.693227
			-0.270291 -0.131953  0.953694
			-0.196176 -0.059629  0.978754
			-0.043718  0.016756  0.998903
			-0.420511 -0.429346  0.799270
			 0.667612 -0.733547 -0.127291
			-0.019333 -0.999412 -0.028336
			 0.278609 -0.673065 -0.685099
			-0.413185 -0.886434  0.208596
			 0.891399 -0.423499  0.161420
			 0.830721 -0.485910 -0.271652
			 0.704641 -0.294720  0.645462
			 0.940216 -0.301538  0.158329
			 0.312129 -0.000767  0.950040
			-0.551250 -0.834294  0.008771
			-0.406869 -0.113279  0.906436
			-0.135341 -0.142683  0.980472
			 0.002074 -0.036929  0.999316
			 0.208908 -0.000837  0.977935
			-0.646060 -0.652757  0.395619
			-0.844879 -0.338683  0.414094
			 0.654721 -0.548410 -0.520180
			-0.153106 -0.836755 -0.525738
			 0.406706 -0.431079 -0.805457
			 0.058777 -0.468958 -0.881263
			 0.268794 -0.236379 -0.933743
			 0.202792 -0.284974 -0.936838
			 0.924673 -0.261835 -0.276447
			 0.609817 -0.283537 -0.740088
			 0.563347 -0.025251  0.825834
			 0.866228 -0.261314 -0.425869
			 0.966329 -0.251495 -0.054391
			 0.785325 -0.021269  0.618718
			-0.349627 -0.657698 -0.667228
			-0.548062 -0.506066 -0.665977
			-0.841808 -0.517498 -0.153478
			-0.195121 -0.144005  0.970150
			-0.331083 -0.106156  0.937611
			-0.648546  0.004380  0.761163
			-0.656594 -0.041610  0.753096
			-0.862839 -0.257125  0.435195
			-0.057679 -0.132734  0.989472
			 0.514491  0.019997  0.857262
			 0.209918 -0.107785  0.971760
			-0.826121 -0.447419 -0.342548
			 0.536497 -0.328151 -0.777489
			-0.219868 -0.454852 -0.862999
			-0.117345 -0.266560 -0.956648
			 0.154365 -0.117654 -0.980984
			 0.384831 -0.096562 -0.917922
			 0.658833 -0.127597 -0.741389
			 0.873928 -0.160917 -0.458646
			 0.983224 -0.181729  0.015640
			 0.945390  0.046943  0.322543
			-0.382175 -0.371800 -0.845995
			-0.528165 -0.277411 -0.802549
			-0.583839 -0.071967  0.808673
			-0.096125 -0.122957  0.987746
			-0.144049 -0.107435  0.983721
			-0.329243 -0.094899  0.939464
			-0.785343  0.097667  0.611308
			-0.921529 -0.080650  0.379842
			-0.874551  0.020904  0.484483
			-0.878350  0.024713  0.477380
			-0.784575 -0.080284  0.614814
			-0.917237 -0.306780 -0.254093
			 0.504699 -0.039641  0.862385
			 0.782833  0.085028  0.616395
			 0.770732  0.044873  0.635578
			-0.016581 -0.098996  0.994950
			 0.475959 -0.085630  0.875289
			 0.185918 -0.082377  0.979106
			 0.041385 -0.102052 -0.993918
			-0.104188 -0.075258 -0.991706
			 0.265739 -0.015235 -0.963925
			 0.101577  0.035856 -0.994181
			 0.609396 -0.051650 -0.791182
			 0.924291 -0.129671 -0.358987
			 0.901400  0.023343 -0.432357
			 0.988885  0.146617  0.024695
			 0.957678  0.232056  0.170300
			-0.963870 -0.179559 -0.196757
			-0.507310 -0.103745 -0.855496
			-0.017534 -0.095647  0.995261
			-0.221303 -0.098051  0.970263
			-0.565365 -0.084094  0.820543
			-0.974104  0.018555  0.225338
			-0.912789  0.208860  0.350991
			-0.935781  0.146038  0.320915
			-0.968014 -0.014316  0.250488
			-0.888727 -0.045601  0.456164
			 0.671195 -0.088588  0.735969
			 0.531167 -0.133975  0.836608
			 0.919671 -0.071255  0.386171
			 0.997293  0.071822 -0.015772
			 0.237187 -0.081255  0.968060
			-0.083118  0.011658 -0.996471
			 0.242025  0.094835 -0.965624
			 0.118049  0.152086 -0.981292
			 0.163788  0.173081 -0.971193
			 0.124557  0.135181 -0.982961
			 0.513831  0.123110 -0.849012
			 0.736337 -0.033102 -0.675805
			 0.859648  0.284248 -0.424509
			 0.894146  0.322891 -0.310234
			 0.893049  0.238606 -0.381486
			-0.952780 -0.012631 -0.303399
			-0.182219  0.026557 -0.982899
			-0.702959  0.014494 -0.711083
			-0.013325 -0.101954  0.994700
			-0.573040 -0.209621  0.792265
			-0.267590 -0.111634  0.957044
			-0.088475 -0.099250  0.991121
			-0.765265 -0.253430  0.591729
			-0.854105 -0.056102  0.517066
			-0.990663  0.065385 -0.119628
			-0.974347  0.211773 -0.076156
			-0.860151  0.389995 -0.328700
			-0.991200 -0.111188 -0.071837
			-0.927000 -0.117489  0.356183
			 0.304996 -0.115776  0.945290
			 0.191924 -0.147338  0.970287
			 0.401426 -0.173996  0.899212
			 0.829159 -0.202412  0.521081
			 0.987825 -0.091731 -0.125648
			 0.963498 -0.267685 -0.003991
			 0.723477  0.144630 -0.675028
			 0.916988 -0.027644 -0.397956
			 0.096944 -0.107325  0.989486
			 0.130142  0.137733 -0.981882
			 0.151994  0.120425 -0.981018
			-0.170867  0.083743 -0.981729
			-0.070740  0.178639 -0.981368
			 0.111348  0.115119 -0.987091
			 0.411134  0.186064 -0.892384
			-0.394847  0.245803 -0.885255
			-0.710965  0.235714 -0.662547
			-0.705038 -0.273523  0.654298
			-0.056319 -0.128436  0.990117
			-0.356790 -0.199980  0.912529
			-0.809865 -0.203632  0.550139
			-0.833448  0.083679 -0.546226
			-0.696707  0.352965 -0.624513
			-0.956520 -0.241512  0.163527
			-0.781672 -0.178894 -0.597483
			-0.930961 -0.238503 -0.276456
			 0.475037 -0.167588  0.863860
			 0.128771 -0.185615  0.974148
			 0.915030 -0.369715  0.161338
			 0.590250 -0.297017  0.750590
			 0.919028 -0.277984  0.279485
			 0.907967 -0.257514 -0.330581
			 0.758476 -0.119504 -0.640650
			 0.933676 -0.357180  0.025926
			 0.862343 -0.298093 -0.409274
			 0.887468 -0.282905 -0.363822
			 0.267134  0.075399 -0.960705
			 0.450402 -0.054124 -0.891184
			 0.229468 -0.076184 -0.970330
			 0.076169  0.032673 -0.996560
			 0.068328 -0.031832 -0.997155
			-0.407907  0.159163 -0.899044
			-0.048597  0.066276 -0.996617
			-0.689829 -0.268461  0.672357
			-0.078484 -0.223744  0.971483
			-0.276148 -0.349700  0.895239
			-0.527401 -0.300036  0.794875
			-0.879799 -0.319280  0.352157
			-0.593554 -0.076856 -0.801116
			-0.953098 -0.291620 -0.081003
			-0.927429 -0.250948 -0.277311
			-0.851745 -0.327110 -0.409305
			-0.317143 -0.184710 -0.930216
			-0.596238 -0.225569 -0.770467
			 0.302290 -0.248940  0.920136
			 0.140275 -0.329925  0.933527
			 0.334083 -0.273879  0.901875
			 0.362080 -0.437918  0.822877
			 0.568210 -0.419609  0.707859
			 0.787546 -0.446916  0.424308
			 0.735850 -0.247697 -0.630214
			 0.401286 -0.137115 -0.905632
			 0.496820 -0.179372 -0.849115
			 0.870876 -0.464438 -0.160848
			 0.795609 -0.579418  0.176862
			 0.576791 -0.160397 -0.800990
			 0.620354 -0.053528 -0.782493
			 0.741756 -0.173552 -0.647825
			 0.058720 -0.119505 -0.991096
			 0.132503 -0.118989 -0.984014
			-0.183099 -0.071926 -0.980460
			-0.753765 -0.491795  0.435863
			-0.650663 -0.393670  0.649355
			-0.043111 -0.322728  0.945509
			-0.101249 -0.379393  0.919679
			-0.467715 -0.515046  0.718311
			-0.091160 -0.394179  0.914501
			-0.193540 -0.275671  0.941567
			-0.327633 -0.466404  0.821659
			-0.912367 -0.394086  0.110823
			-0.901993 -0.415768 -0.116383
			-0.833037 -0.552251 -0.032672
			-0.763115 -0.468632 -0.445017
			-0.706667 -0.332006 -0.624815
			-0.431429 -0.161710 -0.887535
			-0.010148 -0.127024 -0.991848
			-0.204612 -0.125181 -0.970806
			-0.059338 -0.141606 -0.988143
			 0.139067 -0.444195  0.885071
			 0.212067 -0.485588  0.848075
			 0.309546 -0.412986  0.856519
			 0.540545 -0.557270  0.630287
			 0.246396 -0.089069 -0.965068
			 0.889235 -0.437228 -0.134511
			 0.863811 -0.237804 -0.444162
			 0.833045 -0.507421  0.220363
			 0.518539 -0.009161 -0.855005
			 0.126347 -0.069089 -0.989577
			 0.342194 -0.048237 -0.938390
			 0.337443 -0.011098 -0.941281
			 0.640559  0.103163 -0.760948
			 0.056395 -0.098696 -0.993518
			-0.564325 -0.555457  0.610741
			-0.723667 -0.689145  0.037218
			-0.642899 -0.605104  0.469606
			-0.540215 -0.513452  0.666735
			 0.008987 -0.429234  0.903149
			-0.556682 -0.555011  0.618116
			-0.281624 -0.543927  0.790463
			-0.594147 -0.429393  0.680155
			 0.025373 -0.441053  0.897122
			 0.009475 -0.201119  0.979521
			-0.077814 -0.135111  0.987770
			-0.247378 -0.321321  0.914088
			-0.238123  0.041992  0.970327
			-0.140174  0.150789  0.978577
			-0.293624 -0.447717  0.844591
			-0.770740 -0.566751 -0.291126
			-0.620884 -0.299299 -0.724516
			-0.506581 -0.229789 -0.831007
			-0.420221 -0.171101 -0.891145
			-0.013248  0.004880 -0.999900
			-0.059376  0.007315 -0.998209
			-0.170615 -0.074977 -0.982481
			 0.040693 -0.087110 -0.995367
			 0.056091 -0.066463 -0.996211
			 0.203772 -0.368919  0.906849
			 0.336540 -0.325881  0.883483
			 0.557204 -0.360645  0.747969
			 0.592347 -0.087945  0.800869
			 0.538459 -0.012164  0.842564
			 0.835436 -0.308544  0.454804
			 0.931122  0.039962 -0.362513
			 0.972938 -0.226521 -0.045613
			 0.822167  0.065667 -0.565446
			 0.315064  0.076791 -0.945959
			 0.417866  0.260522 -0.870354
			-0.023744 -0.056265 -0.998134
			 0.195354 -0.026019 -0.980388
			 0.172936  0.011821 -0.984862
			-0.065707 -0.107176 -0.992066
			 0.489397  0.404027 -0.772822
			 0.670149  0.260844 -0.694881
			-0.820625 -0.570938 -0.024598
			-0.793585 -0.352586 -0.495889
			-0.873584 -0.297467  0.385180
			-0.806769 -0.157749  0.569420
			-0.577513 -0.269090  0.770759
			-0.416606 -0.242062  0.876268
			-0.833238  0.067799  0.548741
			-0.784320 -0.075007  0.615805
			 0.127337 -0.213093  0.968698
			 0.130088  0.315853  0.939848
			 0.093474  0.255501  0.962280
			-0.431513 -0.046294  0.900918
			-0.287237  0.169804  0.942688
			-0.276728  0.422725  0.862975
			-0.340934  0.639937  0.688654
			-0.026637  0.797686  0.602484
			 0.154061  0.378817  0.912559
			-0.513379  0.057160 -0.856256
			-0.293711 -0.053644 -0.954388
			 0.096930 -0.054474 -0.993799
			-0.114736 -0.020632 -0.993182
			 0.527484 -0.046081  0.848314
			 0.844287  0.061415  0.532360
			 0.702655  0.147443  0.696086
			 0.609857  0.595621  0.522791
			 0.982667 -0.046902  0.179350
			 0.965533  0.239334  0.102297
			 0.839960  0.249548 -0.481864
			 0.899377  0.360311 -0.247582
			 0.210839  0.197733 -0.957313
			 0.034270  0.142648 -0.989180
			 0.406585  0.540237 -0.736772
			 0.496539  0.424077 -0.757369
			 0.364322  0.381601 -0.849500
			 0.310347  0.378116 -0.872189
			 0.673887  0.516500 -0.528303
			-0.965073 -0.194595 -0.175404
			-0.830954  0.177522 -0.527258
			-0.992976  0.112709 -0.035980
			-0.943943  0.259761  0.203705
			-0.847656  0.354154  0.395037
			-0.722838  0.316908  0.614064
			-0.603606  0.462905  0.649137
			-0.669870  0.710211  0.216504
			 0.356072  0.120128  0.926705
			 0.483654  0.618779  0.619025
			 0.321654  0.870734  0.371970
			-0.166580  0.962081  0.215990
			-0.246727  0.946308 -0.208870
			 0.118272  0.933634 -0.338140
			 0.302225  0.932946  0.195630
			-0.161243  0.131625 -0.978098
			-0.330830  0.319252 -0.888048
			-0.624400  0.375820 -0.684751
			 0.629881  0.485954  0.605886
			 0.866010  0.380315  0.324632
			 0.612598  0.779732  0.129390
			 0.361902  0.929465  0.071563
			 0.389657  0.916769  0.087765
			 0.769153  0.639065  0.000160
			 0.123265  0.276251 -0.953148
			 0.276628  0.350835 -0.894646
			-0.040185  0.297942 -0.953738
			-0.027470  0.274101 -0.961309
			 0.391143  0.494042 -0.776485
			 0.568986  0.565864 -0.596702
			 0.483176  0.862197 -0.152175
			 0.437956  0.887951 -0.140493
			 0.343712  0.311879 -0.885773
			 0.541966  0.835887 -0.086983
			-0.790867  0.496197 -0.358214
			-0.703691  0.710401  0.012226
			-0.518558  0.848735  0.103668
			-0.426447  0.903350  0.045851
			-0.185652  0.982615 -0.001189
			 0.115258  0.979141 -0.167329
			 0.095270  0.927273 -0.362061
			-0.036531  0.983330 -0.178123
			-0.523687  0.502530 -0.687907
			-0.435141  0.687570 -0.581291
			-0.232453  0.353732 -0.906002
			-0.577651  0.717736 -0.388812
			 0.208489  0.964997  0.159101
			 0.082311  0.990699  0.108350
			 0.189723  0.313166 -0.930555
			-0.055008  0.253282 -0.965827
			 0.023884  0.414038 -0.909946
			 0.256453  0.568434 -0.781738
			 0.212516  0.939292 -0.269383
			 0.362096  0.902996  0.231265
			 0.193052  0.910185  0.366461
			 0.102815  0.901558  0.420264
			-0.291505  0.954209 -0.067157
			-0.073759  0.975865  0.205542
			 0.070979  0.942884  0.325473
			-0.137153  0.952082  0.273365
			-0.391006  0.920289  0.013502
			-0.434939  0.658946 -0.613693
			-0.185687  0.471898 -0.861877
			-0.183430  0.918334 -0.350737
			-0.022215  0.994030 -0.106821
			-0.238913  0.917296  0.318573
			-0.007873  0.906542  0.422042
			-0.273689  0.909431  0.313098
			-0.160576  0.940520  0.299394
			-0.343130  0.913619 -0.218087
		</DataArray>
	</PointData>
	<Points>
		<DataArray type="Float32" NumberOfComponents="3" format="ascii">
			 0.000610 -0.017048 -0.000713
			 0.000589 -0.017589 -0.001049
			 0.001364 -0.016752 -0.000660
			 0.000038 -0.017151 -0.000884
			 0.000865 -0.016331 -0.000459
			-0.000518 -0.016719 -0.000841
			 0.000710 -0.017845 -0.001526
			 0.000073 -0.017662 -0.001174
			 0.001095 -0.017567 -0.001208
			 0.001576 -0.017081 -0.001075
			 0.001670 -0.016324 -0.000666
			 0.001382 -0.015906 -0.000482
			-0.000603 -0.017275 -0.001110
			-0.000845 -0.016288 -0.000811
			 0.000247 -0.015885 -0.000615
			 0.000761 -0.015639 -0.000481
			-0.001232 -0.016693 -0.001088
			 0.001221 -0.017531 -0.001724
			 0.000194 -0.017901 -0.001651
			 0.000598 -0.017452 -0.002403
			-0.000477 -0.017705 -0.001599
			 0.002161 -0.016278 -0.001384
			 0.001940 -0.016391 -0.002112
			 0.002046 -0.015882 -0.000891
			 0.002353 -0.015437 -0.001168
			 0.001683 -0.015473 -0.000585
			-0.000850 -0.017485 -0.001866
			-0.001159 -0.015851 -0.000869
			-0.000073 -0.015454 -0.000593
			 0.000664 -0.015040 -0.000505
			 0.001173 -0.014613 -0.000546
			-0.001250 -0.017098 -0.001422
			-0.001661 -0.016242 -0.001285
			 0.001526 -0.017081 -0.002033
			-0.000027 -0.017768 -0.002083
			 0.001102 -0.016980 -0.002562
			 0.000223 -0.017170 -0.002666
			 0.001137 -0.015725 -0.002913
			 0.000500 -0.016194 -0.002923
			 0.002294 -0.015842 -0.001795
			 0.001790 -0.015755 -0.002602
			 0.002113 -0.015034 -0.000769
			 0.002189 -0.015350 -0.002338
			 0.002463 -0.015186 -0.001613
			 0.002407 -0.014160 -0.001021
			-0.000590 -0.017277 -0.002474
			-0.001077 -0.017086 -0.002281
			-0.001571 -0.016613 -0.002071
			-0.000519 -0.015020 -0.000585
			-0.000713 -0.014164 -0.000532
			-0.001525 -0.014976 -0.001044
			-0.001135 -0.013715 -0.000737
			-0.001917 -0.015800 -0.001444
			 0.000015 -0.014182 -0.000382
			 0.002165 -0.013738 -0.000896
			 0.000683 -0.013764 -0.000324
			-0.001675 -0.016163 -0.002388
			 0.001483 -0.016179 -0.002628
			-0.000300 -0.016902 -0.002770
			-0.000352 -0.016132 -0.003021
			 0.000634 -0.015595 -0.003045
			 0.001471 -0.014997 -0.002905
			 0.002093 -0.014904 -0.002556
			 0.002416 -0.014503 -0.002211
			 0.002568 -0.014541 -0.001700
			 0.002713 -0.013268 -0.001537
			-0.001202 -0.016138 -0.002785
			-0.001512 -0.015712 -0.002775
			-0.001209 -0.012043 -0.000592
			 0.000045 -0.013578 -0.000308
			-0.000306 -0.012476 -0.000211
			-0.000626 -0.011615 -0.000187
			-0.001915 -0.013217 -0.001569
			-0.002036 -0.014937 -0.001507
			-0.002133 -0.014062 -0.001706
			-0.001706 -0.012371 -0.001422
			-0.001390 -0.011567 -0.000717
			-0.001961 -0.015702 -0.002293
			 0.001645 -0.013317 -0.000711
			 0.002441 -0.012864 -0.001162
			 0.001960 -0.011592 -0.000876
			 0.000486 -0.012487 -0.000155
			 0.001304 -0.011629 -0.000282
			 0.000819 -0.011636 -0.000105
			-0.000078 -0.015545 -0.003152
			-0.000677 -0.014829 -0.003161
			 0.001267 -0.014431 -0.003001
			 0.000355 -0.014411 -0.003161
			 0.002152 -0.014175 -0.002590
			 0.002638 -0.014096 -0.001937
			 0.002654 -0.013227 -0.002078
			 0.002711 -0.012819 -0.001785
			 0.002371 -0.011985 -0.001418
			-0.002157 -0.014871 -0.002375
			-0.001831 -0.014406 -0.002911
			 0.000202 -0.011206 -0.000047
			-0.000406 -0.010769 -0.000052
			-0.001094 -0.010741 -0.000327
			-0.002217 -0.013615 -0.001936
			-0.002132 -0.012754 -0.001993
			-0.001771 -0.011923 -0.001672
			-0.001674 -0.011086 -0.001407
			-0.001557 -0.010699 -0.000841
			 0.001639 -0.011941 -0.000601
			 0.001697 -0.010760 -0.000459
			 0.001961 -0.010313 -0.000769
			 0.002186 -0.010692 -0.001452
			 0.000869 -0.010781 -0.000069
			-0.000766 -0.014166 -0.003175
			 0.001535 -0.013582 -0.002917
			 0.000986 -0.013570 -0.003005
			 0.000433 -0.013563 -0.003031
			 0.000105 -0.013128 -0.003055
			 0.001982 -0.012746 -0.002689
			 0.002354 -0.013626 -0.002447
			 0.002597 -0.012375 -0.001983
			 0.002122 -0.011502 -0.002115
			 0.002172 -0.011096 -0.001815
			-0.002282 -0.014010 -0.002399
			-0.001110 -0.013733 -0.003127
			-0.002071 -0.013556 -0.002749
			 0.000155 -0.010440  0.000035
			-0.000693 -0.009480 -0.000031
			-0.000501 -0.008636  0.000134
			-0.000243 -0.009920  0.000049
			-0.000929 -0.009043 -0.000098
			-0.001438 -0.009860 -0.000598
			-0.002295 -0.013157 -0.002338
			-0.001727 -0.011504 -0.002041
			-0.002076 -0.012288 -0.002373
			-0.001824 -0.009358 -0.001515
			-0.001508 -0.009003 -0.000569
			 0.001098 -0.009501  0.000011
			 0.001369 -0.009074 -0.000021
			 0.001549 -0.009918 -0.000228
			 0.002025 -0.009037 -0.000614
			 0.002220 -0.009406 -0.001463
			 0.002358 -0.008540 -0.001577
			 0.001770 -0.011048 -0.002395
			 0.002056 -0.010223 -0.001994
			 0.000538 -0.009079  0.000167
			 0.001343 -0.012729 -0.002815
			 0.000537 -0.012721 -0.002828
			-0.001161 -0.013111 -0.003115
			-0.000888 -0.012265 -0.002969
			-0.000280 -0.012274 -0.002946
			 0.001646 -0.011887 -0.002633
			-0.001561 -0.012690 -0.002941
			-0.002068 -0.012704 -0.002676
			-0.001168 -0.008607 -0.000163
			 0.000234 -0.008226  0.000279
			-0.000898 -0.006926  0.000289
			-0.001549 -0.008155 -0.000411
			-0.001602 -0.011030 -0.002181
			-0.001608 -0.011640 -0.002511
			-0.001960 -0.008513 -0.001337
			-0.001385 -0.009276 -0.002694
			-0.001828 -0.008666 -0.002159
			 0.001592 -0.008538 -0.000081
			 0.000613 -0.007804  0.000322
			 0.002298 -0.008588 -0.000918
			 0.001870 -0.007788 -0.000080
			 0.002573 -0.007732 -0.000911
			 0.002123 -0.008922 -0.002178
			 0.001816 -0.009761 -0.002393
			 0.002583 -0.007652 -0.001446
			 0.002392 -0.008060 -0.002268
			 0.002659 -0.007414 -0.002192
			 0.001356 -0.011454 -0.002642
			 0.001384 -0.010598 -0.002639
			 0.000859 -0.010980 -0.002766
			 0.000002 -0.011852 -0.002894
			 0.000323 -0.010999 -0.002868
			-0.001080 -0.011423 -0.002731
			-0.000316 -0.011421 -0.002875
			-0.001814 -0.007293 -0.000432
			 0.000316 -0.007378  0.000412
			-0.000582 -0.006043  0.000659
			-0.001830 -0.006208 -0.000035
			-0.002220 -0.007247 -0.001008
			-0.001383 -0.010577 -0.002525
			-0.002218 -0.007625 -0.001700
			-0.002049 -0.008033 -0.002001
			-0.001993 -0.007570 -0.002468
			-0.000739 -0.009260 -0.003022
			-0.001421 -0.008370 -0.002920
			 0.001211 -0.007804  0.000238
			 0.000939 -0.006213  0.000711
			 0.001746 -0.007259  0.000143
			 0.002240 -0.006291  0.000326
			 0.002221 -0.006935 -0.000016
			 0.002603 -0.007329 -0.000580
			 0.002044 -0.008463 -0.002587
			 0.001269 -0.009724 -0.002819
			 0.001587 -0.008872 -0.002788
			 0.002870 -0.007124 -0.001732
			 0.002967 -0.006881 -0.000814
			 0.002206 -0.007595 -0.002726
			 0.002428 -0.006867 -0.002598
			 0.002789 -0.006613 -0.002300
			 0.000385 -0.009700 -0.003022
			 0.000593 -0.008977 -0.003078
			-0.000737 -0.010559 -0.002853
			-0.002569 -0.006390 -0.000938
			-0.002385 -0.006080 -0.000448
			 0.000130 -0.006533  0.000614
			-0.000151 -0.005692  0.000887
			-0.002179 -0.005565  0.000027
			-0.000018 -0.004448  0.001469
			-0.000433 -0.004023  0.001593
			-0.001267 -0.005256  0.000750
			-0.002508 -0.006783 -0.001424
			-0.002348 -0.007114 -0.001878
			-0.002694 -0.006540 -0.001822
			-0.002429 -0.006585 -0.002446
			-0.002066 -0.007118 -0.002762
			-0.001445 -0.007526 -0.003144
			-0.000065 -0.009322 -0.003061
			-0.001128 -0.007953 -0.003218
			-0.000857 -0.008387 -0.003188
			 0.001617 -0.005250  0.001035
			 0.001677 -0.006119  0.000598
			 0.002706 -0.005282  0.000767
			 0.003203 -0.006088 -0.000018
			 0.001011 -0.007981 -0.003149
			 0.003352 -0.006433 -0.001209
			 0.003271 -0.006388 -0.001795
			 0.003470 -0.006267 -0.000653
			 0.002266 -0.005879 -0.002723
			 0.000759 -0.007545 -0.003199
			 0.001837 -0.007143 -0.002988
			 0.001614 -0.006278 -0.003053
			 0.002878 -0.005484 -0.002351
			 0.000670 -0.008407 -0.003138
			-0.002722 -0.005569 -0.000404
			-0.003158 -0.005889 -0.001299
			-0.003442 -0.005519 -0.000981
			-0.002942 -0.005820 -0.000853
			 0.000953 -0.005347  0.001067
			-0.002948 -0.005157 -0.000146
			-0.002063 -0.004801  0.000728
			-0.002584 -0.004777  0.000493
			 0.000887 -0.004877  0.001330
			 0.000535 -0.004040  0.001680
			 0.000066 -0.003611  0.001749
			-0.001471 -0.003995  0.001355
			-0.001008 -0.003586  0.001550
			-0.000194 -0.003176  0.001707
			-0.001475 -0.004820  0.000901
			-0.002920 -0.006203 -0.002241
			-0.002814 -0.005843 -0.002679
			-0.002162 -0.006239 -0.003037
			-0.001813 -0.006669 -0.003080
			-0.000436 -0.007099 -0.003251
			-0.001274 -0.006664 -0.003217
			-0.001713 -0.005804 -0.003181
			-0.000267 -0.008569 -0.003152
			-0.000472 -0.007958 -0.003246
			 0.001637 -0.004636  0.001375
			 0.002175 -0.004875  0.001126
			 0.003073 -0.005560  0.000475
			 0.002988 -0.004856  0.000743
			 0.002570 -0.004441  0.001007
			 0.003503 -0.005662 -0.000028
			 0.003670 -0.005151 -0.001162
			 0.003723 -0.005600 -0.000898
			 0.003332 -0.005530 -0.001795
			 0.001849 -0.005703 -0.002944
			 0.002057 -0.005013 -0.002803
			 0.000178 -0.006981 -0.003230
			 0.001019 -0.006697 -0.003106
			 0.000250 -0.005812 -0.003353
			-0.000045 -0.006238 -0.003339
			 0.002577 -0.003961 -0.001969
			 0.002976 -0.004647 -0.002086
			-0.003532 -0.005606 -0.001562
			-0.003368 -0.005426 -0.002245
			-0.003601 -0.005105 -0.000749
			-0.003409 -0.004710 -0.000309
			-0.002543 -0.004372  0.000801
			-0.001920 -0.004313  0.001108
			-0.002905 -0.003912  0.000432
			-0.003142 -0.004314  0.000095
			 0.001233 -0.004047  0.001664
			 0.001108 -0.003186  0.001662
			 0.000406 -0.003184  0.001739
			-0.001749 -0.003562  0.001333
			-0.001488 -0.003140  0.001407
			-0.000921 -0.002893  0.001484
			-0.001317 -0.002700  0.001242
			-0.000263 -0.002539  0.001468
			 0.000258 -0.002732  0.001577
			-0.002570 -0.004952 -0.002968
			-0.002047 -0.005374 -0.003151
			-0.000091 -0.007535 -0.003207
			-0.000844 -0.005374 -0.003330
			 0.002218 -0.004032  0.001321
			 0.003437 -0.004824  0.000266
			 0.002874 -0.003993  0.000727
			 0.002543 -0.003587  0.000782
			 0.003730 -0.005211 -0.000367
			 0.003738 -0.004764 -0.000598
			 0.003511 -0.004596 -0.001306
			 0.003536 -0.004216 -0.000981
			 0.000539 -0.004968 -0.003200
			-0.000255 -0.005376 -0.003377
			 0.001520 -0.003016 -0.002150
			 0.001945 -0.003762 -0.002296
			 0.001168 -0.003639 -0.002471
			 0.001487 -0.004500 -0.002847
			 0.003058 -0.003835 -0.001467
			-0.003720 -0.005035 -0.001675
			-0.003560 -0.004580 -0.002047
			-0.003804 -0.004645 -0.001140
			-0.003683 -0.004129 -0.001005
			-0.003235 -0.003868 -0.000125
			-0.002689 -0.003501  0.000655
			-0.002107 -0.003108  0.001060
			-0.002751 -0.003244  0.000056
			 0.001551 -0.003621  0.001668
			 0.001602 -0.003152  0.001471
			 0.001226 -0.002799  0.001213
			-0.000816 -0.002453  0.001052
			-0.001693 -0.002763  0.000630
			-0.000331 -0.002537  0.000867
			 0.000740 -0.002675  0.001401
			-0.001795 -0.004943 -0.003198
			-0.002304 -0.004522 -0.003003
			-0.003003 -0.004137 -0.002408
			 0.002092 -0.003484  0.001270
			 0.003284 -0.003941 -0.000053
			 0.002994 -0.003673  0.000296
			 0.002018 -0.003217  0.000686
			 0.002584 -0.003319 -0.000263
			 0.003223 -0.003635 -0.000623
			 0.000114 -0.004117 -0.003049
			 0.000871 -0.004139 -0.002848
			-0.001068 -0.004526 -0.003148
			-0.000566 -0.004113 -0.002995
			 0.000805 -0.002884 -0.002390
			 0.002215 -0.003366 -0.001895
			 0.001970 -0.002953 -0.001616
			 0.001397 -0.002635 -0.001664
			 0.000536 -0.003709 -0.002810
			 0.002631 -0.003354 -0.001327
			-0.003279 -0.003688 -0.001758
			-0.003363 -0.003578 -0.000989
			-0.002820 -0.003208 -0.000544
			-0.002376 -0.003053  0.000358
			-0.002305 -0.003099 -0.000415
			 0.000278 -0.003037  0.000193
			-0.000391 -0.002938  0.000239
			-0.001089 -0.003043 -0.000029
			-0.002682 -0.003642 -0.002396
			-0.002286 -0.003285 -0.002337
			-0.001721 -0.003442 -0.002742
			-0.002804 -0.003347 -0.001916
			 0.001731 -0.003203 -0.000356
			 0.001247 -0.003184 -0.000176
			 0.000211 -0.003279 -0.002782
			-0.001003 -0.003690 -0.002847
			-0.000455 -0.002846 -0.002725
			 0.000295 -0.002692 -0.002511
			 0.000505 -0.002373 -0.002049
			 0.002142 -0.003069 -0.001129
			 0.001218 -0.003011 -0.000733
			 0.000760 -0.002467 -0.001313
			-0.002443 -0.003079 -0.001617
			 0.000211 -0.003099 -0.000412
			 0.000694 -0.003088 -0.000591
			-0.001192 -0.003049 -0.000932
			-0.001963 -0.002944 -0.001788
			-0.001549 -0.002952 -0.002570
			-0.000998 -0.002843 -0.002689
			-0.000710 -0.002459 -0.002437
			-0.000195 -0.002366 -0.002310
			 0.000269 -0.002514 -0.001504
			-0.000481 -0.002979 -0.000932
			-0.001265 -0.002818 -0.001519
			-0.000641 -0.002465 -0.001836
			-0.001192 -0.002520 -0.002261
		</DataArray>
	</Points>
			<Polys>
				<DataArray type="Int32" Name="connectivity" format="ascii">
					0 1 2 
					1 0 3 
					0 2 4 
					3 0 5 
					5 0 4 
					6 1 7 
					2 1 8 
					1 3 7 
					8 1 6 
					2 8 9 
					10 2 9 
					10 11 2 
					4 2 11 
					12 7 3 
					3 5 12 
					5 4 13 
					13 4 14 
					14 4 15 
					15 4 11 
					5 13 16 
					12 5 16 
					17 8 6 
					7 18 6 
					6 18 19 
					19 17 6 
					12 20 7 
					18 7 20 
					17 9 8 
					10 9 21 
					9 17 22 
					22 21 9 
					10 23 11 
					21 24 10 
					23 10 24 
					11 23 25 
					15 11 25 
					16 26 12 
					20 12 26 
					13 27 16 
					14 27 13 
					28 14 15 
					27 14 28 
					29 15 30 
					30 15 25 
					15 29 28 
					31 26 16 
					32 16 27 
					16 32 31 
					33 17 19 
					17 33 22 
					19 18 34 
					34 18 20 
					19 35 33 
					36 19 34 
					37 35 19 
					38 19 36 
					37 19 38 
					26 34 20 
					39 24 21 
					21 22 39 
					40 22 33 
					22 40 39 
					24 41 23 
					25 23 41 
					24 42 43 
					39 42 24 
					41 24 44 
					44 24 43 
					30 25 41 
					26 45 34 
					46 45 26 
					46 26 47 
					47 26 31 
					28 48 27 
					48 49 27 
					50 27 51 
					51 27 49 
					50 52 27 
					52 32 27 
					53 28 29 
					48 28 53 
					30 53 29 
					41 44 30 
					30 44 54 
					53 30 55 
					54 55 30 
					47 31 32 
					32 52 56 
					32 56 47 
					33 35 57 
					57 40 33 
					36 34 58 
					58 34 45 
					57 35 37 
					59 38 36 
					59 36 58 
					37 40 57 
					38 60 37 
					40 37 61 
					61 37 60 
					60 38 59 
					39 40 42 
					62 42 40 
					62 40 61 
					43 42 63 
					63 42 62 
					44 43 64 
					64 43 44 
					64 43 63 
					43 64 44 
					65 44 64 
					54 44 65 
					45 46 58 
					46 47 56 
					46 59 58 
					46 66 59 
					67 66 46 
					67 46 56 
					53 49 48 
					68 51 49 
					49 53 69 
					49 69 70 
					70 71 49 
					68 49 71 
					51 72 50 
					73 52 50 
					74 73 50 
					50 72 74 
					75 72 51 
					51 68 76 
					51 76 75 
					56 52 77 
					77 52 73 
					55 69 53 
					78 55 54 
					79 54 65 
					78 54 80 
					54 79 80 
					55 81 69 
					82 55 78 
					83 55 82 
					55 83 81 
					67 56 77 
					84 60 59 
					85 84 59 
					67 85 59 
					66 67 59 
					60 86 61 
					60 84 85 
					60 85 87 
					86 60 87 
					88 62 61 
					88 61 86 
					63 62 88 
					89 64 63 
					89 63 88 
					64 89 65 
					65 89 90 
					65 90 91 
					79 65 80 
					92 65 91 
					92 80 65 
					67 77 93 
					94 67 93 
					85 67 94 
					71 76 68 
					69 81 70 
					71 70 81 
					95 71 81 
					96 71 95 
					71 96 97 
					76 71 97 
					98 72 99 
					72 98 74 
					100 99 72 
					72 75 100 
					73 93 77 
					73 74 93 
					93 74 98 
					101 100 75 
					101 75 76 
					76 97 102 
					76 102 101 
					103 82 78 
					78 80 103 
					104 103 80 
					104 80 105 
					80 92 106 
					106 105 80 
					95 81 83 
					82 103 104 
					107 83 82 
					82 104 107 
					107 95 83 
					108 85 94 
					87 85 108 
					86 109 88 
					109 86 110 
					87 110 86 
					87 111 110 
					112 87 108 
					112 111 87 
					88 113 114 
					113 88 109 
					88 114 89 
					90 89 114 
					114 113 90 
					115 91 90 
					90 113 115 
					91 115 92 
					92 115 116 
					92 116 117 
					117 106 92 
					118 94 93 
					98 118 93 
					94 119 108 
					94 120 119 
					94 118 120 
					121 96 95 