<?xml version="1.0"?>
<VTKFile type="PolyData" version="0.1" byte_order="LittleEndian" compressor="vtkZLibDataCompressor">
	<PolyData>
		<Piece NumberOfPoints="875" NumberOfVerts="0" NumberOfLines="0" NumberOfStrips="0" NumberOfPolys="1754">
		<PointData Normals="Normals">
		<DataArray type="Float32" Name="Normals" NumberOfComponents="3" format="ascii">
			-0.468103 -0.883666 -0.003762
			-0.424389 -0.901249  0.087429
			-0.283009 -0.861401  0.421776
			-0.536413 -0.758841 -0.369354
			-0.580394 -0.778883 -0.237664
			-0.403019 -0.881263  0.246884
			-0.469448 -0.881671 -0.047697
			-0.215165 -0.862451  0.458129
			 0.123964 -0.717263  0.685687
			-0.205881 -0.795866  0.569395
			 0.102920 -0.734321  0.670955
			-0.408781 -0.715311 -0.566770
			-0.370496 -0.803575 -0.465832
			-0.552324 -0.575914 -0.602712
			-0.638841 -0.607384 -0.472195
			-0.618007 -0.553708 -0.558099
			-0.748381 -0.578352 -0.324707
			-0.566359 -0.824128  0.007049
			-0.352803 -0.857686  0.374038
			-0.279663 -0.937773 -0.205839
			-0.276482 -0.940798  0.196103
			 0.088705 -0.875112  0.475721
			 0.323103 -0.528236  0.785220
			 0.390764 -0.522061  0.758127
			-0.093630 -0.895693  0.434704
			-0.242378 -0.845025  0.476639
			-0.054053 -0.781120  0.622037
			-0.267340 -0.701768  0.660342
			 0.432231 -0.610864  0.663341
			 0.466345 -0.678053  0.568126
			 0.363559 -0.763095  0.534333
			-0.418717 -0.655562 -0.628422
			-0.228700 -0.842895 -0.487057
			-0.618658 -0.438933 -0.651614
			-0.707581 -0.446020 -0.548083
			-0.786984 -0.366912 -0.496015
			-0.886263 -0.357668 -0.294299
			-0.853731 -0.495804 -0.159126
			-0.681136 -0.732119  0.007445
			-0.574411 -0.789711  0.215425
			 0.056373 -0.997867 -0.032930
			 0.276112 -0.757206  0.591947
			 0.384647 -0.464382  0.797745
			 0.307628 -0.453460  0.836504
			 0.329497 -0.557402  0.762059
			 0.000000  0.000000  0.000000
			 0.404584 -0.539676  0.738283
			-0.315682 -0.857031  0.407239
			-0.186944 -0.918538  0.348339
			-0.004367 -0.939190  0.343369
			 0.115757 -0.888627  0.443783
			 0.445610 -0.715684  0.537800
			 0.405004 -0.656173  0.636718
			 0.333587 -0.901151  0.276851
			 0.439775 -0.807643  0.392825
			-0.223828 -0.780000 -0.584381
			-0.552898 -0.503073 -0.664245
			-0.450893 -0.529574 -0.718503
			-0.231607 -0.659373 -0.715252
			 0.063772 -0.857580 -0.510382
			-0.733510 -0.290372 -0.614530
			-0.564739 -0.312457 -0.763833
			-0.858377 -0.180489 -0.480222
			-0.889337 -0.233994 -0.392844
			-0.894292 -0.351701 -0.276674
			-0.915975 -0.214265 -0.339236
			-0.718115 -0.690372  0.087730
			 0.202784 -0.976878 -0.067742
			 0.277891 -0.868649  0.410154
			 0.327898 -0.538034  0.776533
			 0.242501 -0.543193  0.803825
			 0.219302 -0.474889  0.852283
			 0.311860 -0.607675  0.730393
			 0.288412 -0.830001  0.477407
			 0.425177 -0.720001  0.548473
			 0.494248 -0.669211  0.554866
			 0.369941 -0.609053  0.701568
			-0.488601 -0.799843  0.348598
			 0.067537 -0.988417  0.135903
			-0.295928 -0.928765  0.223210
			 0.390635 -0.740130  0.547369
			 0.305368 -0.662988  0.683518
			 0.372883 -0.926651  0.047714
			 0.449358 -0.893288  0.010705
			 0.459529 -0.861535  0.215848
			 0.358493 -0.799509  0.481942
			 0.425405 -0.877141  0.222832
			 0.420652 -0.888895  0.181431
			-0.434776 -0.358431 -0.826134
			-0.406143 -0.511289 -0.757385
			 0.181856 -0.626586 -0.757838
			-0.307977 -0.412767 -0.857190
			-0.238528 -0.533971 -0.811159
			-0.028370 -0.522934 -0.851901
			 0.251957 -0.833301 -0.492064
			-0.702516 -0.199670 -0.683083
			-0.798147 -0.190231 -0.571641
			-0.536413 -0.183829 -0.823692
			-0.420120 -0.184051 -0.888608
			-0.928303 -0.091410 -0.360413
			-0.899254 -0.162329 -0.406191
			-0.819005 -0.104292 -0.564229
			-0.854343 -0.477970 -0.204066
			-0.856377 -0.327720 -0.399022
			-0.704891 -0.439873 -0.556454
			-0.777348 -0.581456  0.240082
			-0.608593 -0.706455  0.361298
			 0.373832 -0.922304  0.098007
			 0.224051 -0.564995  0.794092
			 0.342795 -0.565474  0.750154
			 0.298574 -0.537701  0.788499
			 0.578978 -0.809057 -0.101051
			 0.454612 -0.808043  0.374692
			 0.521116 -0.847649 -0.099640
			-0.751600 -0.620516  0.223737
			-0.623336 -0.774004  0.111217
			 0.267646 -0.959769 -0.084904
			 0.100814 -0.994901  0.002888
			-0.140423 -0.989934 -0.017697
			-0.349666 -0.935944  0.041728
			 0.284952 -0.697662  0.657320
			 0.235514 -0.654851  0.718125
			 0.358360 -0.595407  0.719075
			 0.360550 -0.787180  0.500352
			 0.408667 -0.893890 -0.184262
			 0.435815 -0.881225 -0.183051
			 0.447643 -0.869489 -0.208818
			 0.435702 -0.894096  0.103718
			 0.438478 -0.897512 -0.046993
			 0.442778 -0.894688  0.058996
			 0.326209 -0.896347  0.300251
			 0.330759 -0.942346  0.050814
			 0.394987 -0.918494  0.018789
			-0.343793 -0.212240 -0.914746
			-0.305920 -0.269688 -0.913062
			 0.409502 -0.630550 -0.659329
			 0.337421 -0.539310 -0.771551
			 0.313499 -0.327101 -0.891473
			 0.330920 -0.439801 -0.834905
			-0.188646 -0.385230 -0.903333
			-0.168176 -0.272267 -0.947411
			-0.228673 -0.303761 -0.924899
			 0.058117 -0.290810 -0.955014
			-0.691608 -0.088167 -0.716871
			-0.483223 -0.151289 -0.862326
			-0.366409 -0.064937 -0.928185
			-0.332596 -0.138649 -0.932822
			-0.750489 -0.421393 -0.509112
			-0.751027 -0.365284 -0.550024
			-0.654979 -0.016890 -0.755458
			-0.795469 -0.017288 -0.605748
			-0.808974  0.006215 -0.587812
			-0.787338 -0.598535 -0.147830
			-0.610443 -0.665087 -0.430138
			-0.583961 -0.499666 -0.639784
			 0.572658 -0.634652  0.518922
			 0.620033 -0.721321  0.308634
			 0.550390 -0.540354  0.636466
			 0.591536 -0.544942 -0.594241
			 0.671091 -0.715666 -0.193540
			-0.769686 -0.626881  0.120845
			-0.727503 -0.681183  0.082032
			-0.615552 -0.785132  0.068289
			-0.113700 -0.991247 -0.067092
			 0.353769 -0.841422 -0.408481
			 0.128047 -0.947634 -0.292563
			-0.539578 -0.836415  0.096260
			-0.434684 -0.898411  0.062507
			 0.300049 -0.772732  0.559336
			 0.319510 -0.672493  0.667582
			 0.429354 -0.666606  0.609338
			 0.575354 -0.559160  0.596915
			 0.723738 -0.436812  0.534227
			 0.302005 -0.851807  0.428039
			 0.414485 -0.818576 -0.397662
			 0.384291 -0.815083 -0.433545
			 0.386926 -0.880515 -0.273827
			 0.374027 -0.926524  0.040707
			 0.263617 -0.932123  0.248300
			 0.297373 -0.947015 -0.121372
			 0.272564 -0.960093 -0.062694
			 0.321047 -0.945446  0.055329
			 0.244445 -0.962424  0.118265
			 0.498140 -0.864452 -0.067678
			 0.317598 -0.939752 -0.126481
			-0.308144 -0.189193 -0.932338
			-0.306923 -0.152828 -0.939384
			-0.229083 -0.192993 -0.954083
			 0.461991 -0.390423 -0.796325
			 0.272405 -0.166658 -0.947640
			 0.461441 -0.169194 -0.870888
			 0.460481 -0.131416 -0.877888
			 0.001696 -0.176271 -0.984340
			-0.509119 -0.102221 -0.854604
			-0.773144  0.111678 -0.624321
			-0.637295  0.051890 -0.768871
			-0.291447 -0.038760 -0.955801
			-0.320981  0.052558 -0.945626
			-0.466454  0.117049 -0.876767
			-0.439302  0.026626 -0.897945
			-0.577921 -0.302002 -0.758157
			-0.704299 -0.494346 -0.509494
			-0.690355 -0.632386 -0.351422
			-0.721341 -0.366134 -0.587889
			-0.397709 -0.168888 -0.901834
			-0.533638  0.005256 -0.845696
			-0.795759  0.194008 -0.573697
			-0.769828 -0.633902 -0.074386
			-0.773233 -0.580655 -0.254854
			-0.539342 -0.402305 -0.739771
			-0.697056 -0.445856 -0.561539
			 0.828066 -0.555335 -0.076877
			 0.770646 -0.586978  0.248114
			 0.719887 -0.675170  0.160960
			 0.815840 -0.517612  0.257843
			 0.727455 -0.662761 -0.177644
			 0.850216 -0.370049  0.374429
			 0.554640 -0.361665 -0.749381
			 0.743637 -0.412310 -0.526312
			-0.831062 -0.554388  0.044599
			-0.792849 -0.595615  0.128970
			-0.769729 -0.624046  0.134480
			-0.701915 -0.702203  0.119276
			-0.783103 -0.617898  0.070370
			-0.740896 -0.653338  0.155635
			-0.641635 -0.761445  0.092229
			-0.411576 -0.911370  0.003181
			-0.446770 -0.894491 -0.016788
			-0.239396 -0.960038 -0.144974
			 0.207735 -0.847450 -0.488543
			 0.242578 -0.804438 -0.542251
			-0.067879 -0.957077 -0.281775
			-0.637514 -0.764732  0.093601
			-0.760963 -0.607761  0.227075
			 0.257983 -0.829252  0.495769
			 0.384157 -0.772894  0.505034
			 0.664142 -0.557434  0.498179
			 0.749788 -0.426221  0.506115
			 0.949203 -0.136335  0.283594
			 0.886600 -0.214883  0.409592
			 0.443080 -0.806735  0.390971
			 0.335599 -0.758079 -0.559186
			 0.354585 -0.750930 -0.557111
			 0.334247 -0.819110 -0.466196
			 0.271634 -0.840561 -0.468692
			 0.411067 -0.888270  0.204939
			 0.512333 -0.801469  0.308483
			 0.303737 -0.866823 -0.395426
			 0.228658 -0.894089 -0.385125
			 0.456247 -0.879907  0.132673
			 0.705356 -0.698888  0.118443
			 0.570037 -0.796685 -0.200877
			 0.841158 -0.536907  0.064679
			 0.826355 -0.563043 -0.010947
			-0.126474 -0.074624 -0.989159
			 0.007197 -0.119402 -0.992820
			 0.520543 -0.284973 -0.804876
			 0.317517 -0.100460 -0.942916
			 0.527371 -0.208166 -0.823739
			 0.493965  0.015298 -0.869347
			 0.485272 -0.009836 -0.874308
			 0.464025  0.031782 -0.885252
			 0.437486 -0.058240 -0.897337
			-0.737559  0.030728 -0.674583
			-0.247504  0.122040 -0.961170
			-0.093850  0.016962 -0.995442
			-0.240937  0.258640 -0.935444
			-0.442484  0.248748 -0.861587
			-0.623887 -0.133501 -0.770028
			-0.693117 -0.558338 -0.455903
			-0.732209 -0.022522 -0.680708
			-0.740579 -0.344157 -0.577148
			-0.772370 -0.090045 -0.628758
			-0.590573 -0.214763 -0.777882
			-0.514682 -0.112199 -0.850008
			-0.513214  0.048294 -0.856901
			-0.772205 -0.063020 -0.632240
			-0.628126 -0.460824 -0.626976
			-0.549639 -0.427101 -0.717970
			-0.748575 -0.651321 -0.124166
			 0.900729 -0.434139 -0.014488
			 0.990615 -0.122699 -0.060229
			 0.991723  0.010312  0.127980
			 0.702672 -0.046757 -0.709976
			 0.775934 -0.165705 -0.608661
			 0.883422 -0.325359 -0.337205
			-0.775880 -0.607008  0.171905
			-0.747329 -0.635779  0.193090
			-0.812887 -0.579354  0.059700
			-0.857666 -0.494124  0.142303
			-0.837528 -0.531155  0.128143
			-0.772160 -0.596085  0.220117
			-0.800360 -0.588566  0.114080
			-0.686895 -0.718759  0.107525
			-0.599582 -0.799262  0.040992
			-0.488868 -0.871069 -0.047404
			-0.093664 -0.940503 -0.326620
			 0.220022 -0.794151 -0.566493
			-0.142981 -0.887486 -0.438091
			-0.785907 -0.592594  0.176586
			-0.814953 -0.537163  0.217502
			-0.743100 -0.597855  0.300618
			 0.891144 -0.202917  0.405818
			 0.554078 -0.712467  0.430568
			 0.948966  0.120054 -0.291634
			 0.999627  0.022148 -0.016002
			 0.955913  0.062544  0.286914
			 0.981389  0.106695  0.159663
			 0.933481  0.042293  0.356124
			 0.385687 -0.855374  0.345806
			 0.365097 -0.717987 -0.592621
			 0.342627 -0.746904 -0.569861
			 0.462774 -0.761729 -0.453442
			 0.308524 -0.834620 -0.456314
			 0.474124 -0.812709 -0.338690
			 0.716725 -0.622669  0.313989
			 0.709584 -0.689865 -0.143445
			 0.810132 -0.557975  0.179865
			 0.974624 -0.169532  0.146174
			 0.926845 -0.329647  0.179699
			 0.959853 -0.262498  0.098879
			-0.140410  0.040384 -0.989270
			 0.012641  0.023848 -0.999636
			 0.227227 -0.034231 -0.973240
			 0.350648  0.070216 -0.933871
			 0.508483  0.090686 -0.856283
			 0.507601  0.078195 -0.858037
			 0.559325  0.117174 -0.820625
			 0.725531  0.137217 -0.674371
			 0.583878  0.157054 -0.796505
			-0.708209 -0.090236 -0.700212
			-0.565739  0.179840 -0.804735
			-0.264058  0.172669 -0.948925
			-0.191529  0.202628 -0.960343
			-0.153543  0.354816 -0.922242
			-0.266886  0.288709 -0.919467
			-0.147736  0.351505 -0.924456
			-0.102562  0.417466 -0.902886
			-0.371151  0.290495 -0.881963
			-0.607722  0.092721 -0.788718
			-0.677938  0.188219 -0.710615
			-0.754411  0.208198 -0.622509
			-0.668177 -0.252900 -0.699700
			-0.769993 -0.036005 -0.637036
			-0.495815  0.156301 -0.854246
			-0.583287  0.213864 -0.783606
			-0.579028  0.285299 -0.763761
			-0.536269  0.182325 -0.824120
			-0.555367 -0.496256 -0.667306
			-0.711063 -0.665910 -0.225729
			 0.906452 -0.072562 -0.416028
			-0.884296 -0.452371  0.115674
			-0.885463 -0.464702 -0.002520
			-0.951066 -0.269331  0.151439
			-0.820793 -0.521617 -0.232840
			-0.928106 -0.336096  0.160184
			-0.945006 -0.207666  0.252662
			-0.922157 -0.302548  0.241020
			-0.830611 -0.497677  0.249806
			-0.781310 -0.550952  0.293269
			-0.744103 -0.583869  0.324667
			-0.765969 -0.545346  0.340424
			-0.800395 -0.595094  0.072325
			-0.776716 -0.606112  0.171291
			-0.434457 -0.895313 -0.098292
			-0.675582 -0.736922 -0.023105
			-0.745686 -0.649604  0.148212
			-0.486601 -0.846700 -0.215218
			 0.251428 -0.921601 -0.295693
			 0.150945 -0.882493 -0.445445
			 0.333576 -0.775301 -0.536317
			-0.145431 -0.963061 -0.226635
			-0.356396 -0.871288 -0.337399
			-0.816215 -0.427056  0.389122
			-0.899023 -0.427557  0.094613
			 0.941100 -0.100207  0.322938
			 0.949235  0.121700  0.290073
			 0.849975  0.216725 -0.480180
			 0.916286  0.231938 -0.326534
			 0.952693  0.249350 -0.173782
			 0.953372  0.243336  0.178523
			 0.960753  0.276066  0.027238
			 0.419159 -0.715075 -0.559441
			 0.513919 -0.701934 -0.493128
			 0.632793 -0.658516 -0.407346
			 0.697785 -0.685622 -0.207408
			 0.816856 -0.515031 -0.259786
			 0.803616 -0.572337 -0.163193
			 0.848427 -0.526900 -0.050478
			 0.961682 -0.088294  0.259560
			 0.978868  0.006545  0.204389
			 0.971686  0.101278  0.213471
			 0.972425  0.068349  0.222975
			 0.969806  0.130426  0.206072
			 0.961732 -0.056575  0.268088
			 0.984877 -0.006633  0.173128
			 0.005441  0.115843 -0.993253
			-0.258971  0.136854 -0.956141
			 0.335779  0.128658 -0.933113
			 0.366669  0.180317 -0.912710
			 0.640735  0.125630 -0.757413
			 0.660922  0.074472 -0.746750
			 0.774178  0.153668 -0.614031
			 0.795835  0.252271 -0.550459
			-0.324470  0.351144 -0.878303
			-0.214796  0.244762 -0.945492
			-0.169680  0.241110 -0.955549
			 0.040700  0.280281 -0.959055
			-0.123993  0.369935 -0.920747
			-0.192605  0.381335 -0.904150
			-0.083637  0.431517 -0.898219
			-0.007875  0.581304 -0.813649
			-0.152490  0.548489 -0.822136
			-0.123917  0.577305 -0.807071
			-0.668570  0.351594 -0.655283
			-0.673262  0.128538 -0.728146
			-0.773456  0.281911 -0.567708
			-0.731858  0.371688 -0.571166
			-0.584294 -0.188114 -0.789439
			-0.497766  0.307956 -0.810797
			-0.599058  0.456154 -0.658068
			-0.683527  0.434519 -0.586502
			-0.637765 -0.430697 -0.638557
			-0.973280 -0.200540 -0.111846
			-0.971892  0.039110 -0.232155
			-0.782722 -0.150972 -0.603782
			-0.941108  0.140246 -0.307648
			-0.990886 -0.074170  0.112446
			-0.938401  0.074445  0.337433
			-0.911337 -0.043223  0.409386
			-0.883413 -0.280061  0.375694
			-0.918617 -0.173252  0.355142
			-0.817238 -0.464951  0.340504
			-0.777447 -0.478019  0.408748
			-0.819218 -0.509513  0.263208
			-0.769082 -0.342418  0.539688
			-0.797636 -0.280863  0.533754
			-0.719479 -0.691648  0.063023
			-0.752359 -0.628546  0.197194
			-0.737551 -0.373156  0.562826
			-0.496343 -0.868127  0.000679
			 0.179822 -0.972499 -0.148020
			-0.040222 -0.877983  0.476999
			 0.081746 -0.987922  0.131632
			 0.134236 -0.965728 -0.222148
			 0.592824 -0.622406 -0.511049
			 0.571149 -0.660304 -0.487633
			 0.294686 -0.825088 -0.482068
			-0.287506 -0.867037  0.406924
			-0.792096 -0.358141  0.494285
			-0.731325 -0.323483  0.600435
			-0.768789 -0.356246  0.531086
			-0.885785 -0.196298  0.420538
			-0.700437 -0.292293  0.651117
			-0.615689 -0.386934  0.686446
			 0.949020  0.098277  0.299505
			 0.951310  0.214243  0.221608
			 0.903770  0.393455  0.168504
			 0.892850  0.427237  0.142435
			 0.882985  0.269363 -0.384424
			 0.898268  0.230324 -0.374254
			 0.929374  0.292382 -0.225338
			 0.892608  0.418768  0.166985
			 0.959262  0.281751  0.020788
			 0.902257 -0.373285 -0.215848
			 0.933732 -0.330239 -0.138154
			 0.941553 -0.314164  0.121567
			 0.954480 -0.278649 -0.106410
			 0.977596 -0.206701  0.039769
			 0.962606  0.083183  0.257817
			 0.970759  0.075862  0.227753
			 0.963283  0.113049  0.243529
			 0.946720  0.173501  0.271328
			 0.890531  0.148145  0.430126
			 0.945696  0.184065  0.267916
			 0.979044  0.092646  0.181353
			 0.922743  0.167906  0.346920
			 0.467322  0.209803 -0.858832
			 0.239233  0.333827 -0.911771
			 0.388081  0.261712 -0.883685
			 0.664806  0.296295 -0.685742
			 0.856871  0.192326 -0.478312
			 0.790413  0.245217 -0.561353
			-0.327558  0.426370 -0.843157
			-0.217040  0.561907 -0.798219
			 0.065197  0.460272 -0.885381
			 0.125399  0.584441 -0.801688
			 0.158509  0.561625 -0.812067
			 0.070822  0.789075 -0.610200
			 0.269765  0.681818 -0.679964
			-0.160090  0.684980 -0.710755
			-0.643615  0.316889 -0.696664
			-0.693264  0.254240 -0.674349
			-0.719613  0.161416 -0.675353
			-0.668418  0.341430 -0.660790
			-0.643733  0.525515 -0.556274
			-0.395860  0.423769 -0.814687
			-0.528952  0.556503 -0.640713
			-0.469750  0.483789 -0.738433
			-0.658927  0.488136 -0.572310
			-0.507815  0.641846 -0.574593
			-0.595637  0.562249 -0.573666
			-0.981995 -0.025637 -0.187157
			-0.912181  0.138176 -0.385788
			-0.743480  0.361763 -0.562462
			-0.972781  0.221903 -0.066752
			-0.979912  0.129928  0.151295
			-0.881435  0.290952  0.372048
			-0.905688  0.355134  0.231537
			-0.843525  0.224629  0.487859
			-0.874932  0.101020  0.473592
			-0.856472 -0.027868  0.515440
			-0.798368 -0.176868  0.575609
			-0.527567 -0.059564  0.847423
			-0.593811  0.057942  0.802516
			-0.612500 -0.572959  0.544575
			-0.619786 -0.345822  0.704466
			-0.668336 -0.325538  0.668844
			-0.465940  0.064453  0.882466
			-0.362118 -0.587660  0.723552
			-0.122106 -0.584589  0.802088
			-0.171748 -0.526705  0.832517
			-0.210296 -0.213663  0.954004
			-0.143282 -0.353718  0.924313
			-0.181253 -0.742923  0.644371
			 0.207629 -0.977547  0.035935
			 0.863090 -0.426202 -0.270976
			 0.871819 -0.482609  0.083783
			 0.662374 -0.749159 -0.004640
			-0.724331 -0.259010  0.638951
			-0.813688 -0.227836  0.534792
			-0.763030 -0.099039  0.638731
			-0.773767 -0.131961  0.619574
			-0.765571 -0.019359  0.643060
			-0.673545 -0.061936  0.736547
			-0.397118 -0.218555  0.891365
			-0.434264 -0.293031  0.851791
			-0.520001 -0.072414  0.851090
			 0.952377  0.208857  0.222163
			 0.954580  0.096233  0.281988
			 0.870449  0.441480  0.217749
			 0.919134  0.390877  0.049083
			 0.944617  0.308379  0.112254
			 0.933615  0.239816 -0.266177
			 0.922113  0.252346 -0.293306
			 0.983452  0.141659  0.112941
			 0.970078 -0.160696  0.182002
			 0.996326 -0.002161  0.085610
			 0.996153 -0.087618  0.001393
			 0.954780  0.100421  0.279842
			 0.913562  0.154171  0.376345
			 0.971568  0.146097  0.186309
			 0.888485  0.248763  0.385632
			 0.872206  0.250307  0.420241
			 0.874217  0.235277  0.424723
			 0.972564  0.201308  0.116595
			 0.970377  0.191548  0.147234
			 0.909072  0.307597  0.281018
			 0.926365  0.296740  0.231934
			 0.400798  0.407820 -0.820392
			 0.624320  0.476468 -0.619034
			 0.757725  0.391417 -0.522155
			-0.334927  0.592131 -0.732943
			-0.246230  0.635551 -0.731741
			 0.208647  0.585871 -0.783084
			 0.331786  0.590971 -0.735304
			 0.443928  0.605334 -0.660681
			 0.232932  0.668896 -0.705918
			 0.329614  0.751544 -0.571434
			 0.027876  0.878207 -0.477467
			 0.114982  0.935672 -0.333611
			 0.144756  0.917697 -0.369971
			 0.280135  0.875853 -0.392945
			 0.544220  0.637806 -0.545002
			 0.514673  0.737574 -0.437146
			-0.233334  0.797040 -0.557031
			-0.111374  0.874605 -0.471870
			-0.619214  0.352674 -0.701566
			-0.679780  0.449755 -0.579327
			-0.691983  0.485023 -0.534707
			-0.524128  0.708666 -0.472316
			-0.567387  0.646962 -0.509424
			-0.568540  0.604385 -0.558105
			-0.418803  0.691009 -0.589161
			-0.329384  0.801319 -0.499394
			-0.455734  0.722314 -0.520162
			-0.837117  0.436956 -0.329096
			-0.949911  0.310705 -0.033628
			-0.821718  0.486626 -0.296606
			-0.820630  0.409072  0.399031
			-0.816822  0.540327  0.202110
			-0.883376  0.468130 -0.022391
			-0.858933  0.190742  0.475239
			-0.733768  0.558531  0.386817
			-0.809311  0.412474  0.418188
			-0.822735  0.142411  0.550296
			-0.760358 -0.051328  0.647473
			-0.795090  0.017066  0.606251
			-0.733500 -0.141720  0.664750
			-0.425756 -0.016784  0.904682
			-0.385774 -0.230116  0.893434
			-0.347189 -0.161304  0.923818
			-0.321790 -0.194484  0.926622
			-0.354617  0.007616  0.934981
			-0.321723 -0.069020  0.944315
			-0.238100  0.121225  0.963646
			-0.377750  0.199333  0.904196
			-0.294248 -0.303138  0.906380
			-0.264447 -0.245601  0.932603
			-0.078548 -0.202633  0.976100
			-0.177073 -0.187600  0.966153
			-0.323760 -0.028074  0.945723
			-0.174184 -0.634605  0.752952
			-0.333715 -0.348048  0.876069
			-0.309907 -0.234373  0.921427
			 0.403998 -0.710071  0.576701
			 0.672669 -0.379739  0.635071
			-0.742752  0.055142  0.667293
			-0.637024  0.278141  0.718914
			-0.653674  0.085155  0.751970
			-0.554685  0.024693  0.831694
			-0.506579 -0.029468  0.861690
			-0.453432  0.002736  0.891287
			-0.423818 -0.043811  0.904687
			 0.981405  0.113674  0.154672
			 0.942134  0.191443  0.275196
			 0.972410  0.216819  0.086077
			 0.966568 -0.033727  0.254182
			 0.977577 -0.014373  0.210088
			 0.736585  0.536033 -0.412446
			 0.944191  0.236011 -0.229788
			 0.927611  0.293723 -0.230790
			 0.792629  0.536218 -0.290188
			 0.915798  0.377901 -0.136031
			 0.986511  0.122887  0.108140
			 0.973014  0.042240  0.226848
			 0.750052 -0.075092  0.657102
			 0.933506  0.038706  0.356468
			 0.879998  0.077824  0.468558
			 0.937993  0.243738  0.246499
			 0.917742  0.124301  0.377225
			 0.967434  0.200293  0.154773
			 0.922781  0.359325  0.139146
			 0.814936  0.508621  0.277821
			 0.750445  0.426103  0.505241
			 0.812974  0.380845  0.440489
			 0.766290  0.424255  0.482501
			 0.838298  0.409612  0.359826
			 0.774094  0.465774  0.428758
			 0.817490  0.341853  0.463515
			 0.794870  0.387007  0.467341
			 0.853505  0.384851  0.351310
			 0.439971  0.610849 -0.658247
			 0.507117  0.645673 -0.570910
			 0.531560  0.623324 -0.573508
			 0.009215  0.960015 -0.279798
			 0.211696  0.967713 -0.136806
			 0.158838  0.981092 -0.110587
			 0.251619  0.931573 -0.262410
			 0.427149  0.879179 -0.211159
			 0.308887  0.939756 -0.146451
			 0.517438  0.669585 -0.532835
			 0.626713  0.672031 -0.394468
			 0.592634  0.665737 -0.453410
			 0.591990  0.775628 -0.218972
			-0.073026  0.932031 -0.354945
			-0.739475  0.572500 -0.354147
			-0.615530  0.624865 -0.480277
			-0.368871  0.879416 -0.300935
			-0.519412  0.752210 -0.405453
			-0.303293  0.866002 -0.397560
			-0.523774  0.773019 -0.357915
			-0.572614  0.741649 -0.349386
			-0.792095  0.608967 -0.041771
			-0.676814  0.709619  0.195865
			-0.582098  0.748584  0.317465
			-0.602596  0.658363  0.451039
			-0.763162  0.345737  0.545940
			-0.693761  0.548703  0.466499
			-0.600025  0.630460  0.492432
			-0.707525  0.270598  0.652829
			-0.208538 -0.106166  0.972235
			-0.225787  0.039210  0.973387
			-0.347885  0.026327  0.937167
			-0.291877  0.000299  0.956456
			-0.351081 -0.011485  0.936275
			-0.513429  0.088231  0.853584
			-0.434620  0.125570  0.891817
			-0.330380 -0.083193  0.940174
			 0.063899 -0.460047  0.885592
			 0.257873 -0.223121  0.940063
			-0.387314 -0.024537  0.921621
			 0.017701  0.024529  0.999542
			 0.286891 -0.046543  0.956832
			-0.495582  0.421748  0.759294
			-0.488805  0.588459  0.644038
			-0.601939  0.480158  0.638058
			-0.489771  0.245529  0.836564
			-0.253317  0.009013  0.967341
			-0.234762  0.050140  0.970759
			 0.962896  0.120064  0.241695
			 0.969652  0.131444  0.206148
			 0.614759  0.727012 -0.305817
			 0.904339  0.423502  0.053078
			 0.710376  0.660317 -0.243614
			 0.880928  0.404322  0.245945
			 0.558978  0.130580  0.818836
			 0.819687  0.167901  0.547652
			 0.602937  0.117373  0.789107
			 0.831346  0.285484  0.476826
			 0.904949  0.338671  0.257621
			 0.829755  0.457088  0.320275
			 0.649385  0.654940  0.386463
			 0.619843  0.600267  0.505445
			 0.662817  0.527435  0.531495
			 0.678477  0.538987  0.499162
			 0.683065  0.459807  0.567451
			 0.515021  0.465554  0.719731
			 0.356974  0.633322  0.686639
			 0.604718  0.577426  0.548540
			 0.598959  0.326841  0.731042
			 0.428919  0.397964  0.810958
			 0.069883  0.980065 -0.185980
			 0.239334  0.970935 -0.002134
			 0.245510  0.968948 -0.029408
			 0.159958  0.985780 -0.051485
			 0.313005  0.949742 -0.004347
			 0.413517  0.904342 -0.105689
			 0.567858  0.805903 -0.167508
			-0.011981  0.970662 -0.240151
			-0.116569  0.953467 -0.278051
			-0.690597  0.712355 -0.125003
			-0.625036  0.729606 -0.277498
			-0.404517  0.881377 -0.244010
			-0.166383  0.967359 -0.191139
			-0.263117  0.957940 -0.114548
			-0.379846  0.913649 -0.144784
			-0.534611  0.823881 -0.188177
			-0.596066  0.801600 -0.046300
			-0.719019  0.688960  0.091355
			-0.522154  0.837429  0.161457
			-0.418574  0.848411  0.324029
			-0.442528  0.802110  0.400985
			-0.406067  0.749897  0.522269
			-0.242641  0.018246  0.969945
			-0.147823  0.210046  0.966452
			-0.159637  0.099528  0.982146
			 0.014551  0.289154  0.957172
			-0.444344 -0.000597  0.895856
			-0.303884  0.021972  0.952456
			-0.453941 -0.031289  0.890482
			-0.390941  0.079255  0.916997
			-0.354036  0.000790  0.935231
			-0.120677  0.091199  0.988494
			 0.256902  0.060531  0.964540
			-0.355334  0.532022  0.768564
			-0.335190  0.485090  0.807673
			-0.365277  0.743996  0.559502
			-0.266418  0.648904  0.712703
			-0.461824  0.687554  0.560347
			-0.303637  0.246812  0.920265
			 0.028652  0.014667  0.999482
			-0.176430  0.320278  0.930749
			-0.143205  0.156158  0.977296
			 0.595372  0.796760 -0.103467
			 0.753245  0.647203  0.117259
			 0.570700  0.777025  0.265584
			 0.546839  0.819595  0.170968
			 0.481133  0.213181  0.850332
			 0.587374  0.753343  0.295747
			 0.559969  0.786337  0.260977
			 0.538777  0.784471  0.307122
			 0.560849  0.634928  0.531333
			 0.436158  0.820996  0.368418
			 0.512335  0.675017  0.530909
			 0.498117  0.655978  0.567073
			 0.506209  0.697085  0.507765
			 0.270044  0.553141  0.788106
			 0.139926  0.404724  0.903670
			-0.155570  0.334973  0.929296
			-0.120370  0.326305  0.937569
			 0.429471  0.671864  0.603452
			-0.229084  0.432366  0.872113
			 0.078728  0.568134  0.819162
			-0.219694  0.422442  0.879362
			 0.365785  0.669413  0.646597
			 0.227815  0.239604  0.943764
			-0.069693  0.265209  0.961669
			 0.127772  0.984506 -0.120096
			 0.280722  0.959246  0.032275
			 0.224185  0.973943 -0.034312
			 0.328231  0.939177  0.101053
			 0.403228  0.909628  0.099924
			 0.446549  0.894712 -0.009198
			 0.016576  0.990229 -0.138464
			-0.129553  0.991347  0.021149
			-0.032349  0.998269 -0.049124
			-0.241900  0.970175  0.015620
			-0.439164  0.898289 -0.014547
			-0.288690  0.956927  0.030810
			-0.389132  0.911638  0.132261
			-0.287965  0.880676  0.376146
			-0.292006  0.814820  0.500800
			-0.338385  0.902636  0.265975
			-0.196451  0.447634  0.872371
			-0.356137  0.322962  0.876848
			-0.077822  0.393028  0.916227
			 0.194542  0.061341  0.978974
			-0.402702  0.105068  0.909281
			-0.414661  0.215178  0.884169
			-0.403436  0.238379  0.883411
			-0.333035  0.153009  0.930417
			-0.185338  0.551298  0.813462
			-0.194295  0.752754  0.628977
			-0.173602  0.687866  0.704772
			 0.089978 -0.208900  0.973789
			-0.087674  0.117013  0.989253
			-0.134509  0.378602  0.915733
			 0.492710  0.866861  0.076090
			 0.363972  0.924104  0.116431
			 0.349440  0.924649  0.151378
			 0.348820  0.916377  0.196411
			 0.373594  0.892836  0.251540
			 0.427302  0.769065  0.475344
			 0.333016  0.893563  0.301074
			 0.451680  0.681704  0.575556
			 0.345581  0.689130  0.636925
			 0.340842  0.739116  0.580977
			-0.437458  0.265228  0.859235
			-0.044809  0.429615  0.901899
			-0.100159  0.334101  0.937200
			 0.100147  0.669203  0.736300
			-0.468617  0.167450  0.867386
			 0.215029  0.975835 -0.038837
			 0.110510  0.993506  0.027075
			 0.241528  0.969352  0.044947
			 0.286125  0.950104  0.124238
			-0.168921  0.970079  0.174391
			-0.039217  0.990864  0.129040
			-0.255962  0.941364  0.219810
			-0.122048  0.912510  0.390424
			-0.199374  0.867005  0.456676
			-0.166091  0.831995  0.529338
			-0.476309  0.465270  0.746092
			-0.104581  0.313559  0.943792
			-0.089474 -0.199921  0.975718
			-0.073815  0.656381  0.750810
			-0.050524  0.523729  0.850386
			-0.153778  0.747096  0.646683
			-0.067442  0.835420  0.545459
			-0.057317  0.738786  0.671498
			-0.138321 -0.078099  0.987303
			-0.101742  0.332416  0.937629
			 0.308286  0.922352  0.232865
			 0.323512  0.915484  0.239228
			 0.320230  0.858429  0.400690
			 0.314860  0.804601  0.503468
			 0.268108  0.939122  0.214867
			 0.338217  0.897905  0.281737
			 0.099891  0.831010  0.547214
			-0.114002  0.146851  0.982567
			-0.294180 -0.120284  0.948151
			-0.588759  0.106707  0.801234
			 0.225878  0.973880 -0.023168
			 0.216477  0.975858  0.028978
			 0.157449  0.976033  0.150231
			 0.008224  0.974851  0.222707
			 0.027438  0.951950  0.305023
			 0.104606  0.939774  0.325395
			-0.049238 -0.297254  0.953528
			-0.045527 -0.264339  0.963355