<?xml version="1.0"?>
<VTKFile type="PolyData" version="0.1" byte_order="LittleEndian" compressor="vtkZLibDataCompressor">
	<PolyData>
		<Piece NumberOfPoints="347" NumberOfVerts="0" NumberOfLines="0" NumberOfStrips="0" NumberOfPolys="698">
		<PointData Normals="Normals">
		<DataArray type="Float32" Name="Normals" NumberOfComponents="3" format="ascii">
			-0.592232 -0.790601  0.155600
			-0.317134 -0.715351 -0.622655
			-0.324104 -0.944351  0.056199
			-0.312459 -0.299386  0.901520
			-0.622982 -0.698554 -0.352018
			-0.685736 -0.412323  0.599796
			-0.109051 -0.686069 -0.719317
			-0.564937 -0.453749 -0.689172
			-0.387237 -0.486848 -0.782960
			-0.153369 -0.609765 -0.777601
			-0.223517 -0.688423 -0.690010
			-0.140947 -0.273051  0.951618
			 0.108216 -0.992592  0.055237
			-0.015562 -0.454160  0.890784
			-0.319408 -0.115237  0.940584
			-0.165098 -0.154964  0.974027
			-0.842293 -0.507770 -0.180864
			-0.814002 -0.269052  0.514793
			-0.064835 -0.314505 -0.947039
			-0.307442 -0.178153 -0.934741
			-0.934040 -0.294303 -0.202374
			-0.662014 -0.213395 -0.718471
			 0.088897 -0.732412 -0.675033
			 0.014318 -0.379376 -0.925132
			 0.130642 -0.543765 -0.829007
			 0.119205 -0.270570 -0.955291
			 0.078025 -0.198837  0.976922
			 0.505751 -0.862039 -0.033235
			 0.549865 -0.714894 -0.431943
			 0.254155 -0.554379  0.792508
			-0.732672 -0.188393  0.653987
			-0.438027 -0.077934  0.895577
			 0.023919 -0.197183  0.980075
			-0.299445 -0.161603  0.940328
			-0.128918 -0.185567  0.974138
			 0.047505 -0.051375 -0.997549
			-0.094931 -0.031804 -0.994976
			-0.405701 -0.060425 -0.912007
			-0.984463 -0.153953 -0.084445
			-0.866538 -0.066596 -0.494648
			 0.448923 -0.383499 -0.807091
			 0.236932 -0.100752 -0.966288
			 0.518636 -0.574994  0.632771
			 0.254233 -0.150451  0.955369
			 0.789449 -0.555617 -0.260882
			-0.821953 -0.044139  0.567842
			-0.697375 -0.029575  0.716096
			-0.509069 -0.074927  0.857458
			 0.039125 -0.173496  0.984057
			 0.238432 -0.162486  0.957470
			-0.109067 -0.160706  0.980958
			-0.221705 -0.133880  0.965879
			-0.348523 -0.090977  0.932875
			 0.014306  0.110490 -0.993774
			-0.142832  0.110909 -0.983513
			-0.632578  0.060826 -0.772104
			-0.994773  0.041927  0.093102
			-0.928297  0.234192 -0.288824
			 0.579355 -0.231224 -0.781590
			 0.092942  0.066845 -0.993425
			 0.346121  0.011589 -0.938118
			 0.580428 -0.084250 -0.809941
			 0.731680 -0.278151  0.622315
			 0.419169 -0.034673  0.907246
			 0.635867 -0.004197  0.771787
			 0.931935 -0.258255 -0.254561
			-0.861066  0.101475  0.498264
			-0.941611  0.150725  0.301082
			-0.743018 -0.039581  0.668100
			-0.816528  0.018088  0.577023
			-0.527759 -0.081883  0.845438
			-0.323012 -0.065454  0.944129
			 0.034278 -0.122443  0.991884
			 0.305113 -0.151872  0.940128
			 0.441333 -0.105787  0.891086
			-0.163826 -0.090825  0.982299
			 0.056377  0.177901 -0.982432
			-0.020805  0.177964 -0.983817
			-0.026036  0.125048 -0.991809
			-0.043575  0.185446 -0.981688
			-0.214518  0.180480 -0.959901
			-0.778732  0.284106 -0.559339
			 0.820438 -0.109568 -0.561138
			 0.184737  0.148014 -0.971578
			 0.024134  0.154387 -0.987716
			 0.625955  0.036737 -0.778993
			 0.472311  0.172339 -0.864420
			 0.977690  0.022754 -0.208817
			 0.941316 -0.072669  0.329610
			 0.566111 -0.032994  0.823668
			 0.782031  0.014024  0.623081
			 0.995846 -0.038021  0.082732
			-0.965314  0.114983 -0.234411
			-0.966055  0.048562  0.253729
			-0.684017 -0.065263  0.726541
			-0.786312 -0.095808  0.610356
			-0.325136 -0.094277  0.940956
			-0.524400 -0.120113  0.842958
			-0.151886 -0.087081  0.984555
			 0.371439 -0.115777  0.921210
			 0.030141 -0.091328  0.995365
			 0.510613 -0.127469  0.850310
			 0.496960 -0.111442  0.860588
			-0.000211  0.060888 -0.998145
			-0.141888  0.072802 -0.987202
			-0.581983  0.113781 -0.805202
			 0.379010  0.234730 -0.895127
			 0.116073  0.115367 -0.986518
			 0.695313  0.295906 -0.654966
			 0.881721  0.168341 -0.440715
			 0.935341  0.285434 -0.208961
			 0.906807  0.125916  0.402302
			 0.773754 -0.071432  0.629446
			-0.927449  0.090166 -0.362916
			-0.895132  0.034268 -0.444482
			-0.951631 -0.048219 -0.303435
			-0.936979 -0.152183  0.314500
			-0.712521 -0.116075  0.691983
			-0.188884 -0.089569  0.977906
			-0.082128 -0.155960  0.984343
			-0.673986 -0.129867  0.727239
			-0.306558 -0.200535  0.930488
			-0.479871 -0.267623  0.835525
			 0.375429 -0.081249  0.923283
			 0.547533 -0.128805  0.826811
			 0.785284 -0.096183  0.611619
			-0.058327  0.022485 -0.998044
			 0.103209  0.126949 -0.986525
			 0.333018  0.078346 -0.939660
			 0.210243 -0.013709 -0.977553
			-0.264754  0.023445 -0.964031
			-0.573473 -0.007081 -0.819194
			 0.902667  0.068243 -0.424895
			 0.983392 -0.081609  0.162111
			-0.521087 -0.061478 -0.851287
			-0.907986 -0.150071 -0.391204
			-0.730013 -0.243599  0.638545
			-0.937908 -0.287708  0.193784
			-0.972341 -0.228630 -0.047759
			 0.418186 -0.201318  0.885772
			 0.118360 -0.224127  0.967346
			-0.164612 -0.315503  0.934538
			-0.541979 -0.411619  0.732686
			-0.443692 -0.376145  0.813420
			 0.756543 -0.109343  0.644738
			 0.574537 -0.093277  0.813146
			 0.994188 -0.074910 -0.077318
			 0.926464 -0.133438  0.351936
			-0.328086  0.024583 -0.944328
			 0.225013 -0.028376 -0.973943
			-0.214989  0.021292 -0.976384
			 0.046568  0.011508 -0.998849
			 0.448939 -0.014404 -0.893447
			 0.370387 -0.035171 -0.928212
			 0.693623 -0.078929 -0.716001
			-0.068790  0.000949 -0.997631
			-0.551442 -0.110602 -0.826849
			-0.192923 -0.099542 -0.976152
			-0.885774 -0.218265 -0.409591
			-0.778279 -0.516296  0.357379
			-0.876987 -0.399447 -0.267089
			 0.822492 -0.150774  0.548429
			 0.788605 -0.282308  0.546264
			 0.550201 -0.300084  0.779249
			 0.257343 -0.334191  0.906692
			 0.498543 -0.356303  0.790255
			 0.103351 -0.281305  0.954037
			-0.247072 -0.450284  0.858021
			-0.059511 -0.402219  0.913607
			 0.108924 -0.433752  0.894424
			-0.460131 -0.454938  0.762437
			-0.423376 -0.440388  0.791714
			-0.549743 -0.553987  0.625205
			 0.941060 -0.144687  0.305733
			 0.856603 -0.199548  0.475828
			 0.984333 -0.172769 -0.035206
			 0.494403 -0.122769 -0.860519
			 0.379855 -0.143168 -0.913900
			 0.124354  0.000202 -0.992238
			 0.675777 -0.078760 -0.732886
			 0.886544 -0.265358 -0.378980
			 0.039440  0.013271 -0.999134
			-0.641092 -0.180640 -0.745902
			 0.097549 -0.018148 -0.995065
			-0.104721 -0.027287 -0.994127
			-0.427967 -0.169194 -0.887817
			-0.846546 -0.527915 -0.068296
			-0.720657 -0.581283  0.377839
			-0.665181 -0.397908 -0.631826
			 0.811115 -0.392718  0.433433
			 0.213606 -0.451638  0.866254
			 0.255688 -0.515698  0.817728
			 0.285112 -0.596460  0.750298
			 0.621464 -0.579757  0.526938
			-0.291626 -0.239627  0.926031
			-0.473411 -0.418521  0.775063
			 0.072983 -0.232348  0.969891
			-0.001209 -0.121186  0.992629
			-0.074416 -0.114577  0.990623
			 0.125555 -0.489766  0.862766
			-0.194761 -0.124306  0.972942
			-0.591767 -0.244009  0.768291
			-0.404178 -0.192107  0.894279
			-0.332490 -0.457119  0.824920
			-0.664679 -0.458459  0.589930
			 0.643075 -0.197763 -0.739827
			 0.062658 -0.017269 -0.997886
			-0.027952 -0.053092 -0.998198
			 0.074624 -0.026640 -0.996856
			 0.279959 -0.176932 -0.943567
			 0.710880 -0.376206 -0.594238
			 0.505991 -0.356199 -0.785554
			-0.042385 -0.017358 -0.998951
			 0.085044 -0.003384 -0.996371
			 0.153002 -0.002689 -0.988222
			 0.912248 -0.409632 -0.002254
			 0.170360  0.092160 -0.981063
			-0.058972  0.057223 -0.996618
			 0.092587  0.169501 -0.981171
			-0.229739  0.033141 -0.972688
			-0.436601 -0.131893 -0.889935
			-0.871018 -0.398620  0.287106
			-0.997747 -0.044545 -0.050166
			-0.884565 -0.184165 -0.428519
			-0.653302 -0.175158 -0.736557
			-0.740797 -0.504504 -0.443505
			 0.188134 -0.530091  0.826806
			 0.293361 -0.467482  0.833906
			 0.339841 -0.511144  0.789456
			 0.554062 -0.618860  0.556802
			 0.711398 -0.653287 -0.259094
			 0.500282 -0.818975  0.281066
			-0.263028  0.184969  0.946891
			-0.372726 -0.005728  0.927924
			-0.626098 -0.119235  0.770574
			 0.202143  0.178675  0.962919
			 0.103869  0.189581  0.976356
			 0.231365  0.011101  0.972804
			 0.204471 -0.301049  0.931430
			 0.011562  0.194947  0.980746
			-0.080281  0.244338  0.966361
			-0.679844  0.374805  0.630344
			-0.513055  0.228703  0.827327
			-0.611323 -0.175553  0.771664
			-0.826961  0.123385  0.548554
			-0.925295 -0.083560  0.369929
			 0.052931  0.109570 -0.992569
			 0.158522  0.109287 -0.981288
			 0.254157 -0.101290 -0.961844
			 0.503567 -0.323488 -0.801109
			-0.077844  0.051378 -0.995641
			 0.128913  0.025890 -0.991318
			 0.010010  0.212753 -0.977055
			-0.007445  0.323362 -0.946246
			-0.075830  0.250062 -0.965256
			-0.294730  0.139958 -0.945276
			-0.941912  0.324420  0.086913
			-0.790462  0.328556 -0.516934
			-0.493879  0.226181 -0.839599
			 0.437486 -0.315414  0.842093
			 0.712560  0.176733  0.678987
			 0.543187  0.002642  0.839607
			 0.620403  0.188368  0.761326
			 0.696316 -0.096181  0.711261
			 0.858280 -0.217522  0.464801
			 0.651801 -0.690458  0.313724
			 0.724369 -0.668344 -0.169135
			-0.465400  0.511198  0.722551
			-0.208651  0.722743  0.658868
			-0.550901  0.146657  0.821584
			 0.533880  0.565597  0.628548
			 0.306145  0.708091  0.636303
			 0.110902  0.809731  0.576225
			 0.357100 -0.022982  0.933783
			-0.441242  0.856228  0.268660
			-0.338761  0.847911  0.407785
			-0.447289  0.668235  0.594470
			-0.674694  0.415548  0.610006
			-0.728524  0.653265  0.206150
			 0.038145  0.207156 -0.977564
			 0.272933  0.549488 -0.789665
			 0.075065  0.247215 -0.966049
			 0.046782  0.170929 -0.984172
			 0.132560  0.245738 -0.960229
			 0.350923  0.229992 -0.907721
			 0.406110  0.016571 -0.913674
			 0.683808 -0.010887 -0.729580
			 0.848890 -0.166213 -0.501757
			 0.104860  0.572227 -0.813364
			-0.110798  0.686834 -0.718319
			-0.014110  0.714233 -0.699766
			-0.182028  0.664185 -0.725068
			-0.184913  0.737560 -0.649471
			-0.058121  0.462375 -0.884777
			-0.109509  0.493284 -0.862948
			-0.325568  0.389122 -0.861737
			-0.483288  0.651996 -0.584238
			 0.343324 -0.064966  0.936968
			 0.710638  0.563215  0.421642
			 0.583838  0.745315  0.321930
			 0.684124  0.665728  0.297962
			 0.741295  0.289290  0.605634
			 0.598446  0.537182  0.594389
			 0.907581  0.232065  0.349917
			 0.937228 -0.319480  0.139774
			-0.314749  0.930449  0.187613
			 0.003962  0.994933 -0.100465
			 0.510404  0.858648 -0.047026
			 0.457389  0.887990 -0.047627
			 0.262709  0.955382 -0.135018
			 0.166029  0.924545 -0.343003
			-0.064922  0.997890 -0.000670
			-0.236603  0.942658  0.235405
			-0.294471  0.955658  0.002253
			 0.334056  0.580994 -0.742194
			 0.511417  0.845984  0.150876
			 0.339781  0.940020 -0.030182
			 0.396116  0.467669 -0.790176
			 0.345136  0.380899 -0.857786
			 0.569282  0.346028 -0.745777
			 0.697236  0.152124 -0.700515
			 0.966923  0.064092 -0.246887
			 0.055454  0.991105  0.120977
			-0.217746  0.974276  0.058077
			 0.014973  0.949716  0.312753
			-0.167004  0.985956  0.000912
			-0.130242  0.988080  0.082069
			-0.164059  0.849651 -0.501176
			-0.174693  0.834849 -0.522024
			 0.561394  0.826427  0.043080
			 0.852484  0.469523 -0.229824
			 0.395830  0.913066  0.098130
			 0.218208  0.963243  0.156677
			 0.302408  0.923224 -0.237080
			 0.022333  0.996027  0.086209
			-0.086577  0.995386  0.041366
			-0.034498  0.866267  0.498389
			 0.523394  0.848327 -0.080001
			 0.632110  0.599450 -0.491016
			 0.176588  0.839837  0.513313
			 0.360091  0.864314  0.351135
			 0.440299  0.810821 -0.385623
			 0.395464  0.541208 -0.742093
			 0.579799  0.575446 -0.576797
			-0.026367  0.783199  0.621212
			 0.390685  0.911829  0.126223
			 0.308041  0.947557  0.085126
		</DataArray>
	</PointData>
	<Points>
		<DataArray type="Float32" NumberOfComponents="3" format="ascii">
			-0.001270 -0.016474 -0.001665
			-0.001123 -0.016215 -0.002095
			-0.000857 -0.016707 -0.001482
			-0.000995 -0.016150 -0.001300
			-0.001625 -0.016106 -0.001958
			-0.001906 -0.015519 -0.001380
			-0.000743 -0.015930 -0.002593
			-0.001664 -0.015489 -0.002403
			-0.001247 -0.015462 -0.002804
			-0.000087 -0.016056 -0.002426
			 0.000016 -0.016643 -0.001992
			-0.000496 -0.016238 -0.001216
			 0.000268 -0.016952 -0.001681
			 0.000032 -0.016430 -0.001224
			-0.001311 -0.014208 -0.001038
			-0.000683 -0.014797 -0.000967
			-0.002022 -0.015636 -0.002011
			-0.002228 -0.015040 -0.001700
			-0.000726 -0.015376 -0.002933
			-0.001483 -0.014792 -0.002886
			-0.002499 -0.014453 -0.002114
			-0.002115 -0.014251 -0.002705
			 0.000539 -0.016460 -0.002247
			-0.000210 -0.015447 -0.002946
			 0.000547 -0.016096 -0.002674
			 0.000668 -0.015604 -0.002781
			 0.000313 -0.015892 -0.001079
			 0.000794 -0.016681 -0.001852
			 0.001132 -0.016310 -0.002015
			 0.000553 -0.016380 -0.001239
			-0.002257 -0.014470 -0.001493
			-0.001680 -0.013655 -0.001095
			 0.000091 -0.014915 -0.000923
			-0.001128 -0.012831 -0.000733
			-0.000406 -0.014342 -0.000827
			 0.000324 -0.015012 -0.002937
			-0.001207 -0.014324 -0.002984
			-0.001887 -0.013766 -0.002860
			-0.002612 -0.013822 -0.002056
			-0.002556 -0.013271 -0.002414
			 0.001133 -0.015711 -0.002576
			 0.000855 -0.014679 -0.002895
			 0.001071 -0.016340 -0.001402
			 0.001122 -0.015027 -0.001096
			 0.001596 -0.015988 -0.001976
			-0.002618 -0.013383 -0.001808
			-0.001886 -0.012166 -0.001082
			-0.001577 -0.011776 -0.000811
			 0.000145 -0.013517 -0.000630
			 0.000385 -0.014014 -0.000754
			-0.000078 -0.012541 -0.000486
			-0.000852 -0.012413 -0.000576
			-0.001092 -0.011889 -0.000587
			-0.000932 -0.013878 -0.002969
			-0.001928 -0.012786 -0.002844
			-0.002504 -0.012760 -0.002570
			-0.002678 -0.012856 -0.001965
			-0.002540 -0.011838 -0.002277
			 0.001356 -0.015247 -0.002608
			 0.000616 -0.014103 -0.002937
			 0.001133 -0.014197 -0.002833
			 0.001377 -0.014662 -0.002678
			 0.001550 -0.015531 -0.001316
			 0.000986 -0.014055 -0.000980
			 0.001397 -0.014567 -0.001148
			 0.001766 -0.015402 -0.002123
			-0.002494 -0.012442 -0.001716
			-0.002344 -0.011508 -0.001624
			-0.001815 -0.010260 -0.000913
			-0.002110 -0.011114 -0.001311
			-0.001538 -0.009860 -0.000665
			-0.001038 -0.010936 -0.000515
			 0.000198 -0.012104 -0.000420
			 0.000438 -0.012604 -0.000531
			 0.000660 -0.013561 -0.000781
			-0.000558 -0.011512 -0.000412
			-0.001151 -0.012829 -0.002757
			-0.000656 -0.013444 -0.002896
			-0.000860 -0.012005 -0.002628
			-0.000629 -0.012769 -0.002742
			-0.001892 -0.011851 -0.002673
			-0.002132 -0.011370 -0.002465
			 0.001763 -0.014883 -0.002279
			 0.000892 -0.013671 -0.002856
			-0.000122 -0.013044 -0.002832
			 0.001566 -0.013817 -0.002594
			 0.001427 -0.013300 -0.002645
			 0.001896 -0.013945 -0.002187
			 0.001870 -0.015019 -0.001672
			 0.001274 -0.013577 -0.001135
			 0.001669 -0.014073 -0.001380
			 0.001891 -0.014461 -0.002031
			-0.002311 -0.010993 -0.001780
			-0.002139 -0.010101 -0.001486
			-0.001773 -0.009316 -0.000786
			-0.002021 -0.008745 -0.001032
			-0.001003 -0.009509 -0.000354
			-0.001467 -0.007976 -0.000381
			-0.000282 -0.011077 -0.000338
			 0.000474 -0.011658 -0.000408
			 0.000234 -0.011152 -0.000326
			 0.000939 -0.012995 -0.000880
			 0.000714 -0.012149 -0.000561
			-0.000581 -0.011458 -0.002615
			-0.001340 -0.010980 -0.002536
			-0.001838 -0.010457 -0.002365
			 0.000946 -0.012280 -0.002526
			 0.000172 -0.012147 -0.002648
			 0.001703 -0.012928 -0.002260
			 0.001816 -0.013414 -0.002345
			 0.001620 -0.012469 -0.002052
			 0.001639 -0.013072 -0.001491
			 0.001294 -0.012145 -0.000998
			-0.002220 -0.010487 -0.001937
			-0.002091 -0.009987 -0.002092
			-0.002157 -0.009021 -0.002001
			-0.002136 -0.008227 -0.001101
			-0.001985 -0.007823 -0.000783
			-0.000505 -0.010082 -0.000280
			-0.000434 -0.008189 -0.000048
			-0.001608 -0.007032 -0.000414
			-0.000914 -0.007157  0.000013
			-0.001395 -0.006127  0.000080
			 0.000527 -0.010227 -0.000284
			 0.000820 -0.011200 -0.000505
			 0.001316 -0.011191 -0.000906
			-0.000511 -0.009521 -0.002635
			 0.000031 -0.011644 -0.002622
			 0.000723 -0.011284 -0.002474
			 0.000225 -0.010697 -0.002618
			-0.001288 -0.009527 -0.002527
			-0.001957 -0.009487 -0.002248
			 0.001482 -0.011981 -0.001964
			 0.001581 -0.011586 -0.001557
			-0.002111 -0.008509 -0.002157
			-0.002201 -0.008018 -0.002112
			-0.002226 -0.007269 -0.000950
			-0.002472 -0.006836 -0.001182
			-0.002370 -0.007555 -0.001865
			 0.000855 -0.008331 -0.000247
			 0.000368 -0.007556  0.000040
			-0.000362 -0.006324  0.000340
			-0.002165 -0.005817 -0.000255
			-0.001878 -0.005188  0.000223
			 0.001322 -0.010235 -0.000815
			 0.000797 -0.009761 -0.000368
			 0.001560 -0.011065 -0.001714
			 0.001567 -0.010667 -0.001264
			-0.001676 -0.009010 -0.002403
			 0.000535 -0.009295 -0.002540
			-0.001253 -0.008558 -0.002526
			 0.000313 -0.008282 -0.002568
			 0.000999 -0.010865 -0.002321
			 0.000830 -0.009845 -0.002435
			 0.001276 -0.010445 -0.002183
			-0.000942 -0.007121 -0.002616
			-0.001978 -0.007132 -0.002436
			-0.001698 -0.006534 -0.002578
			-0.002440 -0.007027 -0.002022
			-0.002708 -0.006224 -0.001127
			-0.002961 -0.005863 -0.001716
			 0.001724 -0.009254 -0.001126
			 0.001879 -0.008456 -0.001047
			 0.001316 -0.007880 -0.000385
			 0.001037 -0.006486  0.000155
			 0.001682 -0.006971 -0.000312
			 0.000394 -0.006887  0.000177
			-0.000565 -0.004937  0.000865
			 0.000481 -0.004785  0.001130
			 0.000442 -0.005700  0.000630
			-0.001856 -0.004684  0.000509
			-0.002373 -0.004551  0.000207
			-0.002687 -0.005807 -0.000612
			 0.001670 -0.010164 -0.001420
			 0.001573 -0.009736 -0.001053
			 0.001756 -0.009657 -0.001576
			 0.001343 -0.008545 -0.002301
			 0.001639 -0.007541 -0.002331
			 0.001122 -0.007441 -0.002470
			 0.001576 -0.009248 -0.002085
			 0.002104 -0.008230 -0.001639
			-0.000667 -0.006681 -0.002565
			-0.002425 -0.006510 -0.002179
			-0.001165 -0.006109 -0.002640
			-0.001664 -0.005544 -0.002670
			-0.002188 -0.005751 -0.002514
			-0.003701 -0.004980 -0.001234
			-0.003363 -0.005181 -0.000834
			-0.002869 -0.005490 -0.002090
			 0.002156 -0.007933 -0.001198
			 0.001212 -0.005845  0.000425
			 0.001737 -0.005648  0.000355
			 0.002234 -0.006111 -0.000123
			 0.002465 -0.006722 -0.000664
			-0.001303 -0.003925  0.001204
			-0.001837 -0.004268  0.000858
			 0.000762 -0.004248  0.001363
			 0.000264 -0.003713  0.001484
			-0.000252 -0.003638  0.001473
			 0.000986 -0.005075  0.000906
			-0.000768 -0.003555  0.001421
			-0.002355 -0.004114  0.000450
			-0.002872 -0.004001  0.000247
			-0.002893 -0.004541  0.000059
			-0.003484 -0.004764 -0.000385
			 0.001668 -0.008049 -0.002248
			 0.001157 -0.006471 -0.002468
			 0.001433 -0.006016 -0.002494
			 0.001708 -0.005561 -0.002532
			 0.001949 -0.006100 -0.002440
			 0.002169 -0.007332 -0.001964
			 0.002454 -0.006582 -0.002093
			-0.000133 -0.006267 -0.002577
			 0.000142 -0.005815 -0.002597
			 0.000656 -0.006001 -0.002484
			 0.002432 -0.007418 -0.001349
			-0.000872 -0.005198 -0.002521
			-0.000373 -0.005752 -0.002542
			-0.001383 -0.004957 -0.002629
			-0.002162 -0.005003 -0.002588
			-0.002990 -0.004954 -0.002247
			-0.003764 -0.004645 -0.000791
			-0.004002 -0.004012 -0.001353
			-0.003909 -0.004464 -0.001600
			-0.003590 -0.004430 -0.002003
			-0.003454 -0.005106 -0.001859
			 0.001770 -0.004936  0.000934
			 0.002529 -0.005281  0.000403
			 0.003026 -0.005773  0.000063
			 0.003635 -0.005778 -0.000346
			 0.002730 -0.006845 -0.001701
			 0.002992 -0.006437 -0.000833
			-0.001009 -0.003015  0.001323
			-0.001436 -0.003422  0.001224
			-0.002206 -0.003712  0.000770
			 0.001055 -0.003318  0.001389
			 0.000540 -0.003258  0.001450
			 0.001296 -0.003839  0.001381
			 0.001536 -0.004333  0.001242
			 0.000023 -0.003187  0.001455
			-0.000492 -0.003109  0.001434
			-0.002319 -0.003162  0.000542
			-0.002997 -0.003479  0.000159
			-0.003472 -0.004327 -0.000137
			-0.003634 -0.003787 -0.000295
			-0.003882 -0.004150 -0.000746
			 0.000952 -0.004983 -0.002450
			 0.002242 -0.005166 -0.002444
			 0.002286 -0.005664 -0.002421
			 0.003254 -0.005998 -0.002022
			-0.000098 -0.005295 -0.002582
			 0.000418 -0.005371 -0.002570
			-0.000836 -0.004260 -0.002358
			-0.001592 -0.003700 -0.002189
			-0.002384 -0.004029 -0.002420
			-0.002900 -0.003979 -0.002313
			-0.003907 -0.003543 -0.001100
			-0.003654 -0.003492 -0.001764
			-0.003415 -0.003949 -0.002095
			 0.002462 -0.004853  0.000749
			 0.002822 -0.004368  0.000501
			 0.003063 -0.004869  0.000398
			 0.002326 -0.003892  0.000920
			 0.003563 -0.005329 -0.000099
			 0.003911 -0.005298 -0.000501
			 0.003521 -0.006143 -0.000795
			 0.003744 -0.006072 -0.001402
			-0.001532 -0.002889  0.001066
			-0.000818 -0.002513  0.001116
			-0.001881 -0.003320  0.001019
			 0.001578 -0.003121  0.001104
			 0.000814 -0.002761  0.001211
			 0.000047 -0.002452  0.001138
			 0.001811 -0.003880  0.001221
			-0.001904 -0.002716  0.000458
			-0.002312 -0.002815  0.000029
			-0.002837 -0.002966  0.000005
			-0.003399 -0.003342 -0.000248
			-0.003629 -0.003087 -0.000846
			 0.001228 -0.004547 -0.002385
			 0.001042 -0.002665 -0.001905
			 0.000454 -0.004433 -0.002407
			 0.000178 -0.004854 -0.002542
			 0.001752 -0.004420 -0.002312
			 0.002776 -0.004790 -0.002260
			 0.003017 -0.005319 -0.002224
			 0.003534 -0.005450 -0.001922
			 0.003879 -0.005572 -0.001558
			 0.000268 -0.002551 -0.001926
			-0.000764 -0.002412 -0.001891
			-0.000248 -0.002475 -0.001942
			-0.001297 -0.002809 -0.001970
			-0.001808 -0.002642 -0.001799
			-0.002089 -0.003181 -0.001994
			-0.002624 -0.003549 -0.002214
			-0.003139 -0.003504 -0.002077
			-0.003374 -0.002956 -0.001653
			 0.002224 -0.004382  0.000996
			 0.003343 -0.004028 -0.000391
			 0.002836 -0.003783 -0.000171
			 0.002584 -0.003767  0.000443
			 0.003586 -0.004550 -0.000230
			 0.002082 -0.003457  0.000875
			 0.003935 -0.004782 -0.000658
			 0.003990 -0.005708 -0.000951
			-0.001256 -0.002495  0.000697
			-0.000473 -0.002361  0.000725
			 0.001822 -0.003279  0.000269
			 0.001325 -0.002828  0.000715
			 0.000557 -0.002556  0.000726
			 0.000038 -0.002529  0.000588
			-0.001794 -0.002754 -0.000161
			-0.002836 -0.002762 -0.000594
			-0.003142 -0.002738 -0.001010
			 0.001540 -0.003200 -0.001994
			 0.001304 -0.002759 -0.001339
			 0.000797 -0.002400 -0.001520
			 0.002125 -0.003766 -0.002037
			 0.002795 -0.004316 -0.002076
			 0.003311 -0.004458 -0.001855
			 0.003760 -0.005036 -0.001715
			 0.004064 -0.005199 -0.001107
			 0.000025 -0.002221 -0.001518
			-0.001014 -0.002320 -0.001341
			-0.000495 -0.002321 -0.001331
			-0.001537 -0.002446 -0.001363
			-0.002060 -0.002621 -0.001184
			-0.002327 -0.002706 -0.001609
			-0.002848 -0.002771 -0.001625
			 0.003344 -0.003832 -0.000990
			 0.003837 -0.004443 -0.001245
			 0.002326 -0.003487 -0.000359
			-0.000766 -0.002877 -0.000566
			 0.001051 -0.003046  0.000071
			 0.000210 -0.002831 -0.000272
			-0.000257 -0.003150 -0.000582
			-0.001022 -0.002662 -0.000962
			 0.002067 -0.003154 -0.001362
			 0.002057 -0.003306 -0.001847
			 0.000535 -0.002575 -0.001130
			 0.000787 -0.002907 -0.000745
			 0.002572 -0.003478 -0.001589
			 0.002814 -0.003876 -0.001828
			 0.003272 -0.004009 -0.001626
			-0.000033 -0.002662 -0.001149
			 0.002577 -0.003517 -0.000975
			 0.001301 -0.003106 -0.000548
		</DataArray>
	</Points>
			<Polys>
				<DataArray type="Int32" Name="connectivity" format="ascii">
					0 1 2 
					3 0 2 
					4 1 0 
					0 5 4 
					5 0 3 
					6 2 1 
					7 1 4 
					8 6 1 
					7 8 1 
					9 10 2 
					3 2 11 
					9 2 6 
					2 10 12 
					11 2 13 
					2 12 13 
					14 5 3 
					14 3 15 
					11 15 3 
					16 7 4 
					5 16 4 
					17 5 14 
					16 5 17 
					18 9 6 
					18 6 8 
					19 8 7 
					16 20 7 
					21 7 20 
					21 19 7 
					18 8 19 
					9 22 10 
					23 9 18 
					24 22 9 
					25 24 9 
					9 23 25 
					22 12 10 
					11 26 15 
					26 11 13 
					12 22 27 
					28 12 27 
					27 12 28 
					13 12 29 
					29 12 27 
					26 13 29 
					17 14 30 
					30 14 31 
					31 14 15 
					15 26 32 
					33 15 34 
					34 15 32 
					15 33 31 
					17 20 16 
					30 20 17 
					18 19 35 
					35 23 18 
					36 19 37 
					19 21 37 
					35 19 36 
					20 30 38 
					38 21 20 
					39 37 21 
					38 39 21 
					27 22 28 
					28 22 24 
					25 23 35 
					40 24 25 
					28 24 40 
					41 25 35 
					40 25 41 
					29 42 26 
					43 32 26 
					26 42 43 
					28 42 27 
					42 29 27 
					28 44 42 
					44 28 40 
					31 45 30 
					45 38 30 
					46 45 31 
					31 47 46 
					31 33 47 
					32 48 34 
					49 32 43 
					49 48 32 
					33 34 50 
					50 51 33 
					52 47 33 
					52 33 51 
					34 48 50 
					36 53 35 
					41 35 53 
					37 54 36 
					53 36 54 
					37 39 55 
					55 54 37 
					39 38 56 
					45 56 38 
					57 55 39 
					57 39 56 
					40 41 58 
					40 58 44 
					53 59 41 
					59 60 41 
					61 41 60 
					58 41 61 
					42 44 62 
					43 42 62 
					49 43 63 
					63 43 64 
					64 43 62 
					65 44 58 
					62 44 65 
					56 45 66 
					66 45 46 
					67 66 46 
					46 47 68 
					69 67 46 
					46 68 69 
					47 70 68 
					70 47 71 
					71 47 52 
					50 48 72 
					48 73 72 
					48 49 73 
					74 49 63 
					74 73 49 
					51 50 75 
					75 50 72 
					52 51 71 
					51 75 71 
					54 76 53 
					59 53 77 
					78 53 76 
					79 77 53 
					53 78 79 
					54 55 80 
					76 54 80 
					57 80 55 
					66 57 56 
					81 57 67 
					80 57 81 
					57 66 67 
					82 58 61 
					82 65 58 
					60 59 83 
					83 59 84 
					84 59 77 
					85 61 60 
					86 85 60 
					86 60 83 
					87 82 61 
					87 61 85 
					62 88 64 
					88 62 65 
					89 74 63 
					90 63 64 
					63 90 89 
					88 91 64 
					64 91 90 
					91 65 82 
					88 65 91 
					92 67 93 
					93 67 69 
					92 81 67 
					94 95 68 
					68 70 94 
					68 93 69 
					68 95 93 
					70 71 96 
					94 70 97 
					97 70 96 
					71 75 98 
					96 71 98 
					72 73 99 
					72 99 100 
					98 75 72 
					72 100 98 
					101 102 73 
					73 74 101 
					73 102 99 
					101 74 89 
					78 76 80 
					84 77 79 
					78 103 84 
					84 79 78 
					103 78 104 
					104 78 80 
					81 105 80 
					105 104 80 
					81 92 105 
					82 87 91 
					83 84 106 
					106 86 83 
					103 107 84 
					84 107 106 
					85 86 108 
					108 109 85 
					85 109 87 
					108 86 106 
					91 87 90 
					110 111 87 
					110 87 109 
					111 90 87 
					111 89 90 
					112 89 111 
					101 89 112 
					113 92 93 
					113 105 92 
					114 113 93 
					93 115 114 
					93 116 115 
					93 95 116 
					97 95 94 
					116 95 117 
					97 117 95 
					96 98 118 
					96 118 97 
					118 119 97 
					117 97 120 
					119 121 97 
					120 97 122 
					122 97 121 
					118 98 100 
					100 99 123 
					124 123 99 
					99 102 112 
					125 124 99 
					125 99 112 
					118 100 119 
					119 100 123 
					112 102 101 
					126 103 104 
					127 107 103 
					127 103 128 
					103 129 128 
					129 103 126 
					104 130 126 
					104 105 131 
					130 104 131 
					105 114 131 
					113 114 105 
					106 107 127 
					128 106 127 
					106 110 108 
					106 132 110 
					132 106 128 
					109 108 110 
					110 132 111 
					111 132 112 
					132 133 112 
					125 112 133 
					115 131 114 
					131 115 134 
					135 115 116 
					115 135 134 
					136 137 116 
					116 117 136 
					116 138 135 
					137 138 116 
					136 117 120 
					119 123 139 
					139 140 119 
					121 119 141 
					140 141 119 
					120 122 136 
					122 121 141 
					142 136 122 
					122 143 142 
					122 141 143 
					123 124 125 
					125 144 123 
					145 123 144 
					123 145 139 
					133 146 125 
					146 147 125 
					144 125 147 
					126 130 148 
					126 149 129 
					126 148 150 
					126 151 149 
					151 126 150 
					129 152 128 
					152 132 128 
					152 129 153 
					149 153 129 
					131 148 130 
					134 148 131 
					132 152 154 
					132 154 146 
					132 146 133 
					148 134 150 
					155 150 134 
					134 135 156 
					155 134 157 
					156 157 134 
					156 135 158 
					135 138 158 
					159 137 136 
					136 142 159 
					158 138 137 
					158 137 160 
					137 159 160 
					161 139 145 
					162 163 139 
					161 162 139 
					140 139 164 
					139 165 164 
					139 163 165 
					140 164 166 
					141 140 166 
					167 141 168 
					168 141 169 
					141 170 143 
					170 141 167 
					141 166 169 
					142 143 171 
					172 142 171 
					142 172 159 
					171 143 170 
					144 147 173 
					174 144 173 
					144 174 161 
					145 144 161 
					146 154 175 
					146 175 173 
					173 147 146 
					176 153 149 
					177 176 149 
					178 149 151 
					149 178 177 
					155 151 150 
					178 151 155 
					154 152 153 
					176 154 153 
					179 154 176 
					180 154 179 
					154 180 175 
					178 155 181 
					181 155 157 
					182 157 156 
					156 158 182 
					181 157 183 