<?xml version="1.0"?>
<VTKFile type="PolyData" version="0.1" byte_order="LittleEndian" compressor="vtkZLibDataCompressor">
	<PolyData>
		<Piece NumberOfPoints="1118" NumberOfVerts="0" NumberOfLines="0" NumberOfStrips="0" NumberOfPolys="2250">
		<PointData Normals="Normals">
		<DataArray type="Float32" Name="Normals" NumberOfComponents="3" format="ascii">
			 0.068024 -0.321670  0.944405
			 0.398446 -0.244635  0.883965
			 0.013560 -0.209040  0.977813
			-0.136137 -0.491435  0.860208
			 0.476176 -0.344316  0.809137
			-0.172442 -0.360442  0.916704
			 0.452964 -0.174152  0.874354
			 0.801832 -0.186735  0.567622
			 0.174209 -0.141262  0.974524
			-0.160487 -0.228598  0.960202
			-0.136430 -0.113772  0.984095
			-0.044449 -0.089791  0.994968
			-0.337153 -0.552175  0.762516
			-0.397934 -0.625059  0.671528
			 0.291801 -0.555370  0.778728
			-0.320723 -0.725335  0.609119
			 0.785333 -0.261025  0.561354
			-0.306004 -0.458306  0.834456
			 0.341439 -0.091265  0.935463
			 0.758477 -0.160373  0.631660
			 0.921744 -0.166873  0.350059
			 0.904549 -0.174103  0.389204
			-0.181439 -0.420215  0.889100
			-0.074019 -0.158257  0.984620
			-0.020784 -0.041910  0.998905
			-0.035092 -0.111098  0.993190
			-0.319211 -0.570493  0.756731
			-0.318139 -0.770282  0.552678
			-0.428054 -0.823565  0.372171
			 0.662015 -0.520735  0.539046
			 0.164717 -0.813370  0.557941
			-0.399541 -0.837261  0.373310
			 0.011307 -0.923349  0.383795
			 0.895140 -0.238621  0.376543
			 0.105688 -0.031324  0.993906
			 0.681335 -0.100564  0.725031
			 0.487061 -0.051276  0.871861
			 0.229850 -0.040534  0.972382
			 0.865871 -0.139503  0.480424
			 0.928428 -0.230871  0.291067
			 0.918440 -0.188467  0.347776
			 0.917258 -0.160332  0.364598
			-0.023234 -0.535331  0.844322
			-0.038383 -0.279988  0.959236
			-0.010996 -0.079647  0.996763
			 0.164195 -0.085188  0.982742
			 0.057246 -0.131897  0.989609
			-0.142335 -0.148005  0.978691
			-0.061443 -0.114147  0.991562
			-0.131365 -0.124161  0.983528
			-0.172520 -0.721995  0.670044
			-0.339732 -0.915282  0.216430
			-0.274278 -0.904558  0.326414
			-0.374068 -0.920721  0.111110
			-0.441929 -0.895418 -0.054083
			 0.583458 -0.732645  0.350438
			 0.882287 -0.399075  0.249616
			 0.156423 -0.987678  0.004973
			 0.590282 -0.033006  0.806522
			 0.728194 -0.056659  0.683025
			 0.426955 -0.018017  0.904093
			 0.214199  0.012476  0.976710
			 0.809957 -0.107851  0.576487
			 0.905719 -0.165523  0.390225
			 0.874934 -0.476917  0.083914
			 0.961667 -0.261338 -0.083060
			 0.958900 -0.202203  0.199057
			 0.876731 -0.469563 -0.104180
			 0.942628 -0.214214  0.256055
			 0.930524 -0.155297  0.331675
			 0.913958 -0.188054  0.359607
			 0.003273 -0.465080  0.885263
			-0.101076 -0.709933  0.696978
			-0.271508 -0.449243  0.851155
			-0.043067 -0.072656  0.996427
			-0.284704 -0.129556  0.949820
			-0.067864 -0.072747  0.995039
			 0.302227 -0.077857  0.950051
			 0.198240 -0.111579  0.973782
			-0.048440 -0.136551  0.989448
			-0.293958 -0.087906  0.951767
			-0.205883 -0.110949  0.972267
			-0.247814 -0.020697  0.968587
			-0.228765 -0.849994  0.474529
			-0.355489 -0.930540 -0.087882
			-0.273811 -0.956144  0.103997
			-0.123104 -0.959636 -0.252871
			-0.514373 -0.798956 -0.311592
			-0.422845 -0.811373 -0.403578
			 0.650686 -0.750942  0.112670
			 0.554405 -0.823482 -0.120469
			 0.655339  0.015645  0.755173
			 0.793027  0.017296  0.608941
			 0.637738  0.028744  0.769717
			 0.468005 -0.014976  0.883599
			 0.862983 -0.083884  0.498221
			 0.959696 -0.073267  0.271324
			 0.949790 -0.046691  0.309386
			 0.718077 -0.674533 -0.171381
			 0.813071 -0.343134 -0.470292
			 0.973867 -0.193486 -0.118939
			 0.887969 -0.230358 -0.398053
			 0.766401 -0.245984 -0.593398
			 0.726219 -0.490574 -0.481604
			 0.524069 -0.761554 -0.381297
			 0.985990 -0.164406 -0.028181
			 0.968542 -0.035320  0.246331
			 0.984914 -0.079203  0.153854
			-0.405207 -0.735680  0.542755
			-0.305532 -0.663074  0.683361
			-0.726171 -0.191157  0.660405
			-0.647160 -0.312059  0.695559
			-0.554813 -0.530400  0.640982
			-0.097069 -0.018614  0.995104
			-0.415797 -0.076241  0.906256
			-0.576528 -0.130091  0.806655
			 0.496089 -0.077128  0.864839
			 0.164769 -0.129139  0.977842
			-0.144324 -0.165637  0.975569
			-0.231038 -0.142254  0.962489
			-0.402406 -0.067657  0.912958
			-0.600976  0.046273  0.797926
			-0.531842 -0.033235  0.846191
			-0.651321  0.042248  0.757625
			-0.294092 -0.894537  0.336622
			-0.407191 -0.806356 -0.428935
			-0.217727 -0.947806 -0.232936
			-0.504402 -0.863308  0.016693
			 0.246680 -0.929384 -0.274580
			-0.209686 -0.790389 -0.575601
			 0.084243 -0.846103 -0.526320
			-0.443388 -0.664520 -0.601515
			 0.925091  0.051297  0.376265
			 0.908548  0.086702  0.408685
			 0.817840  0.018044  0.575163
			 0.731042 -0.029729  0.681684
			 0.987249  0.103641  0.120818
			 0.991624  0.120762  0.045808
			 0.988630  0.131229  0.073419
			 0.420471 -0.389128 -0.819624
			 0.300142 -0.520657 -0.799269
			 0.796155 -0.075081 -0.600417
			 0.403475 -0.184517 -0.896193
			 0.884639  0.060548 -0.462329
			 0.988797  0.128720 -0.075580
			-0.544067 -0.759255  0.357103
			-0.672107 -0.616586  0.409992
			-0.730082 -0.443881  0.519567
			-0.893082 -0.185745  0.409759
			-0.703576 -0.106048  0.702663
			-0.847665 -0.099528  0.521112
			-0.953172 -0.090334  0.288623
			 0.591604 -0.086494  0.801576
			 0.337065 -0.099386  0.936221
			 0.850815 -0.067846  0.521068
			 0.703005 -0.097695  0.704443
			 0.157782 -0.127453  0.979214
			 0.046810 -0.140804  0.988930
			-0.131200 -0.152708  0.979524
			-0.320207 -0.122638  0.939376
			-0.410120 -0.107035  0.905729
			-0.445753 -0.125169  0.886362
			-0.638821 -0.047658  0.767878
			-0.836655  0.072931  0.542853
			-0.878335  0.013629  0.477852
			-0.790146 -0.023492  0.612468
			-0.881032  0.017290  0.472740
			-0.088954 -0.791823 -0.604238
			-0.362166 -0.633192 -0.684035
			-0.481479 -0.586564 -0.651246
			-0.236811 -0.955730 -0.174643
			-0.078576 -0.904764 -0.418603
			-0.762907 -0.620358  0.182011
			-0.314994 -0.872617 -0.373254
			-0.669412 -0.662277 -0.336567
			-0.861495 -0.507152 -0.024969
			-0.087987 -0.573868 -0.814208
			-0.191400 -0.546878 -0.815040
			-0.396860 -0.547584 -0.736650
			-0.432746 -0.484460 -0.760283
			 0.975777  0.202368  0.083110
			 0.966660  0.108180  0.232090
			 0.904715  0.010973  0.425875
			 0.946965  0.292121 -0.133878
			 0.919660  0.349979 -0.178158
			 0.897915  0.316303 -0.306105
			 0.067097 -0.454863 -0.888030
			 0.048125 -0.337828 -0.939977
			 0.367582 -0.060924 -0.927993
			 0.461525  0.036703 -0.886368
			 0.611838  0.106671 -0.783757
			-0.067825 -0.172707 -0.982635
			 0.502598  0.248453 -0.828049
			 0.744752  0.236786 -0.623921
			 0.720696  0.343500 -0.602167
			-0.863758 -0.425614  0.269766
			-0.959946 -0.230081  0.159897
			-0.970120 -0.050625  0.237286
			-0.952763 -0.046773  0.300092
			-0.989114 -0.086399  0.119118
			-0.975084 -0.008614  0.221667
			 0.445477 -0.083044  0.891434
			 0.761818 -0.051222  0.645763
			 0.606328 -0.057931  0.793102
			 0.269676 -0.103453  0.957378
			 0.015879 -0.117579  0.992937
			 0.870015 -0.096134  0.483563
			 0.994843  0.053820 -0.085964
			 0.988495 -0.098044  0.115172
			-0.266676 -0.103290  0.958236
			-0.521668 -0.091924  0.848182
			-0.459529 -0.069661  0.885427
			-0.641025 -0.078220  0.763524
			-0.774470 -0.028890  0.631951
			-0.760293 -0.037191  0.648515
			-0.861696 -0.002254  0.507421
			-0.958651 -0.002087  0.284578
			-0.965697  0.002612  0.259659
			-0.986466  0.029732  0.161247
			-0.993811  0.006982  0.110863
			-0.217763 -0.785970 -0.578646
			 0.010273 -0.673760 -0.738879
			 0.125794 -0.557602 -0.820522
			-0.185856 -0.534947 -0.824190
			-0.895623 -0.427053 -0.124436
			-0.307234 -0.646505 -0.698311
			-0.712445 -0.453281 -0.535685
			-0.317205 -0.424232 -0.848179
			-0.206684 -0.367954 -0.906582
			-0.367936 -0.384468 -0.846645
			 0.943125  0.214337 -0.254116
			 0.664797  0.501733 -0.553452
			 0.438698  0.476543 -0.761873
			 0.667698  0.291340 -0.685056
			-0.041891 -0.050662 -0.997837
			 0.129851  0.040345 -0.990712
			 0.377258  0.143170 -0.914975
			 0.126892  0.139757 -0.982022
			 0.285727  0.319502 -0.903481
			-0.352219 -0.243887 -0.903582
			-0.279563 -0.071058 -0.957494
			 0.242494  0.522079 -0.817698
			 0.381661  0.446487 -0.809311
			-0.955195 -0.042676  0.292883
			-0.975625 -0.178397  0.127794
			-0.995272  0.095085  0.019827
			-0.995928  0.082745  0.035793
			-0.984144 -0.046432  0.171186
			-0.993272  0.092065  0.070249
			-0.999955  0.007992 -0.005191
			 0.456808 -0.058263  0.887655
			 0.245681 -0.085955  0.965532
			 0.340844 -0.077864  0.936890
			 0.804359 -0.027893  0.593489
			 0.857372 -0.044244  0.512792
			 0.947688 -0.099686  0.303234
			 0.693673 -0.035222  0.719428
			 0.541558 -0.050132  0.839167
			 0.066801 -0.093242  0.993400
			-0.163783 -0.087457  0.982612
			 0.899527 -0.127560  0.417827
			 0.964147 -0.082762  0.252133
			 0.981150  0.011626 -0.192896
			 0.778072  0.179141 -0.602091
			 0.870296  0.037040 -0.491135
			 0.698422  0.079682 -0.711237
			 0.994129 -0.065388 -0.086213
			 0.936501 -0.023608 -0.349870
			-0.435998 -0.067230  0.897433
			-0.312306 -0.070430  0.947367
			-0.601773 -0.045883  0.797349
			-0.576822 -0.038288  0.815972
			-0.711806 -0.058118  0.699968
			-0.681708 -0.036264  0.730725
			-0.834240 -0.023464  0.550903
			-0.799124 -0.049007  0.599165
			-0.924623 -0.049577  0.377644
			-0.994160 -0.053638  0.093646
			-0.999751  0.002647 -0.022137
			-0.990772  0.113179 -0.074569
			 0.045546 -0.511939 -0.857814
			 0.198135 -0.435853 -0.877938
			 0.162318 -0.327596 -0.930770
			-0.319946 -0.351538 -0.879804
			 0.011931 -0.302496 -0.953076
			-0.950192 -0.238446 -0.200695
			-0.236592 -0.442548 -0.864971
			-0.588376 -0.256908 -0.766689
			-0.926321 -0.155051 -0.343350
			 0.121065  0.585687 -0.801445
			 0.277194  0.263451 -0.923990
			 0.174226  0.253111 -0.951620
			 0.021278  0.603030 -0.797435
			 0.143451  0.322617 -0.935596
			 0.452994  0.202771 -0.868148
			-0.089611  0.120618 -0.988646
			 0.017255  0.539367 -0.841894
			 0.126552  0.632014 -0.764554
			-0.275918 -0.096290 -0.956346
			-0.189447  0.071249 -0.979302
			-0.968403  0.213514 -0.128873
			-0.885290  0.366967 -0.285653
			-0.928707  0.070411 -0.364068
			-0.810191  0.367180 -0.456913
			-0.752866  0.454944 -0.475624
			-0.987226 -0.018080 -0.158299
			-0.870824  0.096968 -0.481936
			-0.876427  0.084048 -0.474143
			 0.388693 -0.063837  0.919153
			 0.253804 -0.069699  0.964741
			 0.920195 -0.044072  0.388971
			 0.761873 -0.020431  0.647404
			 0.822271 -0.034315  0.568061
			 0.987842 -0.153572 -0.024163
			 0.972078 -0.181073 -0.149258
			 0.998646 -0.046171 -0.023975
			 0.683439 -0.041623  0.728820
			 0.491202 -0.081082  0.867264
			 0.418860 -0.070842  0.905283
			 0.640752 -0.070338  0.764519
			-0.045637 -0.085993  0.995250
			 0.168602 -0.060053  0.983853
			-0.211084 -0.067767  0.975116
			 0.389163  0.122301 -0.913014
			 0.596169  0.059463 -0.800654
			 0.404661  0.056602 -0.912713
			 0.688869 -0.037900 -0.723894
			-0.443698 -0.038327  0.895356
			-0.637174 -0.033072  0.770010
			-0.695280 -0.016425  0.718552
			-0.781543 -0.041452  0.622473
			-0.858327 -0.014030  0.512911
			-0.885629 -0.082319  0.457038
			-0.991654 -0.081558  0.099853
			-0.971442 -0.056936 -0.230346
			-0.889960  0.082768 -0.448464
			-0.818343  0.258966 -0.513080
			-0.141028 -0.232868 -0.962229
			-0.063395 -0.132682 -0.989129
			 0.207930 -0.116765 -0.971149
			 0.188015 -0.159884 -0.969065
			-0.136938 -0.030588 -0.990107
			-0.663356 -0.047368 -0.746803
			 0.212797  0.217864 -0.952498
			 0.032833  0.415007 -0.909226
			 0.041422  0.538850 -0.841383
			 0.074205  0.571900 -0.816960
			 0.065462  0.238646 -0.968898
			 0.163067  0.187593 -0.968616
			-0.060018  0.473432 -0.878783
			 0.010041  0.293499 -0.955907
			 0.089507  0.500212 -0.861264
			-0.509093  0.451401 -0.732845
			-0.467212  0.578049 -0.669009
			-0.438565  0.225323 -0.869995
			-0.512954  0.366135 -0.776417
			-0.219114  0.570671 -0.791406
			-0.651241  0.190956 -0.734453
			-0.376039  0.099417 -0.921255
			 0.074078 -0.080836  0.993971
			 0.314857 -0.087911  0.945059
			 0.977950 -0.007045  0.208719
			 0.995320 -0.091647 -0.030649
			 0.892282 -0.037680  0.449904
			 0.820916 -0.051758  0.568699
			 0.981301 -0.026028  0.190710
			 0.730020 -0.137460 -0.669459
			 0.801666 -0.176626 -0.571082
			 0.505484 -0.082771  0.858857
			 0.195364 -0.076253  0.977762
			 0.308387 -0.071865  0.948542
			 0.218753 -0.077092  0.972730
			 0.679731 -0.064044  0.730660
			-0.421521 -0.053688  0.905228
			-0.231320 -0.087415  0.968943
			 0.344072  0.071919 -0.936185
			 0.276193  0.109059 -0.954894
			 0.313531  0.091322 -0.945177
			 0.315017  0.080190 -0.945692
			 0.404430  0.055202 -0.912901
			 0.490824  0.061872 -0.869059
			-0.746176 -0.033979  0.664881
			-0.763814 -0.030612  0.644710
			-0.809481 -0.036276  0.586024
			-0.388965 -0.075033  0.918192
			-0.582639 -0.064895  0.810136
			-0.698707 -0.061103  0.712793
			-0.935214 -0.117192  0.334126
			-0.871207 -0.153575 -0.466276
			-0.743036  0.019007 -0.668981
			-0.563603  0.196390 -0.802361
			-0.505303  0.142360 -0.851119
			-0.443094  0.250821 -0.860672
			-0.581045  0.298327 -0.757224
			 0.066807  0.103210 -0.992414
			 0.249836  0.065773 -0.966052
			 0.065415  0.556187 -0.828479
			 0.029670  0.400246 -0.915927
			 0.071341  0.502618 -0.861560
			 0.038592  0.100552 -0.994183
			 0.076251  0.104924 -0.991553
			 0.191564  0.132153 -0.972542
			 0.130942  0.309183 -0.941945
			 0.207135  0.314342 -0.926436
			 0.272705  0.570954 -0.774366
			 0.227765  0.530457 -0.816541
			 0.098330  0.511957 -0.853365
			-0.208402  0.359595 -0.909538
			 0.115987  0.212434 -0.970267
			-0.068384  0.365220 -0.928406
			-0.003034  0.575610 -0.817718
			 0.156285  0.543388 -0.824806
			 0.115773 -0.080131  0.990038
			-0.124277 -0.094053  0.987780
			 0.891025 -0.047224 -0.451491
			 0.978705  0.006029  0.205182
			 0.998354  0.028633  0.049695
			 0.760301 -0.040937  0.648280
			 0.944589 -0.053240  0.323908
			 0.976462 -0.006293 -0.215598
			 0.453602 -0.019106 -0.891000
			 0.386088 -0.125670 -0.913862
			 0.518950 -0.130352 -0.844807
			 0.476232 -0.079154  0.875750
			 0.628126 -0.035194  0.777316
			 0.078354 -0.090197  0.992837
			-0.013669 -0.067739  0.997609
			 0.265631 -0.092967  0.959582
			 0.382397 -0.062866  0.921857
			 0.262883  0.013839 -0.964728
			 0.164319  0.084755 -0.982759
			 0.186775  0.027089 -0.982029
			 0.127494  0.026756 -0.991479
			 0.173136  0.051874 -0.983531
			 0.310476 -0.012072 -0.950504
			-0.896185 -0.024732  0.442990
			-0.862547 -0.025484  0.505335
			-0.773757 -0.042836  0.632032
			-0.983814 -0.059227  0.169120
			-0.187424 -0.074213  0.979472
			-0.491459 -0.062283  0.868671
			-0.277622 -0.061472  0.958722
			-0.666804 -0.064487  0.742438
			-0.749553 -0.058981  0.659312
			-0.964621 -0.123182  0.233093
			-0.982123 -0.179407  0.056985
			-0.942052 -0.131135 -0.308774
			-0.706377 -0.203096 -0.678074
			-0.650188 -0.008566 -0.759725
			-0.464804 -0.065406 -0.882995
			-0.504737 -0.181847 -0.843903
			-0.471171  0.057177 -0.880187
			-0.402633  0.178231 -0.897842
			-0.300207  0.180104 -0.936717
			-0.285560  0.095912 -0.953549
			-0.114176  0.151430 -0.981852
			 0.352243  0.392665 -0.849552
			 0.172686  0.167780 -0.970582
			 0.009586  0.078993 -0.996829
			 0.045441  0.079081 -0.995832
			 0.278851  0.349008 -0.894671
			 0.352779  0.510037 -0.784481
			 0.088583  0.302768 -0.948939
			 0.214880  0.475391 -0.853129
			 0.312674  0.407480 -0.858018
			 0.891183 -0.008848 -0.453558
			 0.672352 -0.032642 -0.739511
			 0.489195 -0.053688 -0.870520
			 0.998416 -0.054804  0.012747
			 0.626750 -0.032876  0.778527
			 0.636633 -0.094432  0.765363
			 0.791484 -0.067403  0.607462
			 0.922107 -0.081417  0.378271
			 0.994979 -0.099419  0.011491
			 0.400261 -0.062189 -0.914288
			 0.196897 -0.084141 -0.976807
			 0.295907 -0.070678 -0.952599
			 0.593033 -0.078581  0.801335
			-0.267805 -0.084577  0.959754
			-0.151769 -0.100790  0.983264
			-0.061451 -0.076586  0.995167
			 0.187047 -0.088377  0.978367
			 0.374889 -0.086288  0.923045
			 0.504880 -0.056976  0.861307
			-0.037673  0.064335 -0.997217
			-0.113743  0.063376 -0.991487
			-0.031988  0.068547 -0.997135
			-0.115315  0.076590 -0.990372
			 0.178807  0.002252 -0.983882
			-0.034540  0.002275 -0.999401
			 0.263772 -0.030511 -0.964102
			 0.349105 -0.045168 -0.935994
			-0.970947 -0.011928  0.238998
			-0.813704 -0.041893  0.579769
			-0.925246 -0.013761  0.379118
			-0.994448 -0.098221 -0.037758
			-0.999058 -0.022022  0.037384
			-0.864646 -0.115767 -0.488861
			-0.973975 -0.078934 -0.212468
			-0.489801 -0.075377  0.868570
			-0.677697 -0.083359  0.730601
			-0.794630 -0.054515  0.604642
			-0.812862 -0.120498 -0.569856
			-0.408551  0.015760 -0.912600
			-0.313957 -0.113990 -0.942569
			-0.292557 -0.044834 -0.955197
			-0.280906 -0.001477 -0.959734
			-0.155859  0.066581 -0.985533
			 0.068656  0.138786 -0.987940
			 0.192740  0.240633 -0.951287
			 0.919578 -0.085694 -0.383448
			 0.447599 -0.037781 -0.893436
			 0.513168 -0.064554 -0.855857
			 0.204773 -0.063296 -0.976761
			 0.977437 -0.099866 -0.186128
			 0.778910 -0.088800  0.620817
			 0.900001 -0.068587  0.430457
			 0.971492 -0.067399  0.227289
			 0.711899 -0.047838 -0.700650
			 0.789825 -0.153230 -0.593884
			 0.956723 -0.116035 -0.266864
			 0.992667 -0.120622 -0.007921
			 0.150231 -0.075077 -0.985796
			 0.320223 -0.075994 -0.944289
			 0.652335 -0.047244  0.756457
			-0.264487 -0.075918  0.961396
			-0.502873 -0.095715  0.859044
			-0.106127 -0.091473  0.990136
			 0.380301 -0.066267  0.922486
			 0.259570 -0.083913  0.962072
			 0.473576 -0.095352  0.875576
			 0.214387 -0.030791 -0.976263
			 0.096877 -0.024350 -0.994998
			-0.128437 -0.041271 -0.990858
			 0.265404 -0.054820 -0.962578
			 0.345363 -0.068591 -0.935959
			-0.999969  0.003083  0.007188
			-0.962299  0.000669  0.271992
			-0.919103 -0.051280  0.390667
			-0.961761  0.020745 -0.273103
			-0.909308 -0.010799 -0.415984
			-0.379382 -0.076633 -0.922061
			-0.634885 -0.008192 -0.772563
			-0.646584 -0.092185  0.757252
			-0.790711 -0.080543  0.606868
			-0.729950 -0.070338  0.679871
			-0.382157 -0.033808 -0.923479
			-0.124227 -0.080935 -0.988947
			-0.152047 -0.094154 -0.983878
			-0.086538 -0.058406 -0.994535
			-0.341810 -0.056042 -0.938097
			 0.590652 -0.051387 -0.805289
			 0.816124 -0.083236 -0.571850
			 0.300580 -0.058074 -0.951987
			 0.338466 -0.058587 -0.939153
			 0.345304 -0.078714 -0.935184
			 0.797404 -0.062150  0.600237
			 0.925385 -0.123268  0.358424
			 0.340414 -0.078480 -0.936995
			 0.460438 -0.131688 -0.877869
			 0.786297 -0.116070 -0.606849
			 0.508996 -0.161729 -0.845439
			 0.882696 -0.165114 -0.439983
			 0.976482 -0.207512  0.058501
			 0.882453 -0.243420 -0.402522
			 0.355864 -0.069136 -0.931977
			 0.560361 -0.054891  0.826427
			-0.370521 -0.073164  0.925938
			-0.636647 -0.085739  0.766374
			-0.531160 -0.054975  0.845486
			-0.165513 -0.104357  0.980671
			 0.053886 -0.117550  0.991604
			-0.385838 -0.113614  0.915544
			 0.220205 -0.101216  0.970188
			 0.452040 -0.112519  0.884872
			 0.168000 -0.029687 -0.985340
			 0.045563 -0.015550 -0.998840
			-0.135065 -0.060318 -0.988999
			 0.263102 -0.065337 -0.962553
			-0.998435 -0.032407 -0.045579
			-0.751660  0.000110 -0.659551
			-0.841283 -0.011125 -0.540481
			-0.926711 -0.091862  0.364374
			-0.906126 -0.046949  0.420393
			-0.987479 -0.103701 -0.118875
			-0.867946 -0.077679  0.490547
			-0.828193 -0.149671 -0.540088
			-0.623884  0.054261 -0.779631
			-0.317541 -0.066232 -0.945929
			-0.719035 -0.064417  0.691982
			-0.744950 -0.109643  0.658049
			-0.823028 -0.115229  0.556190
			-0.221327 -0.057835 -0.973483
			-0.266164 -0.102259 -0.958488
			 0.283594 -0.064710 -0.956759
			 0.857435 -0.079718  0.508380
			 0.715868 -0.089800  0.692437
			 0.829290 -0.100535  0.549700
			 0.938496 -0.164363  0.303661
			 0.853905 -0.145417  0.499700
			 0.899494 -0.114266  0.421727
			 0.242415 -0.115899 -0.963225
			 0.182897 -0.055340 -0.981573
			 0.672749 -0.216488 -0.707490
			 0.347369 -0.211264 -0.913620
			 0.597805 -0.366443 -0.712986
			 0.965375 -0.214571 -0.148360
			 0.979731 -0.189973  0.063542
			 0.601708 -0.319266 -0.732132
			 0.905259 -0.245602 -0.346677
			 0.600466 -0.082679  0.795364
			-0.573510 -0.111278  0.811605
			-0.022264 -0.108110  0.993890
			-0.388730 -0.111762  0.914548
			 0.246856 -0.105114  0.963334
			 0.617107 -0.096273  0.780968
			 0.600462 -0.149560  0.785543
			 0.504117 -0.130271  0.853754
			 0.402994 -0.118727  0.907469
			 0.079063 -0.049106 -0.995659
			 0.032986 -0.071183 -0.996918
			-0.841967 -0.021687 -0.539093
			-0.329033 -0.004893 -0.944306
			-0.245478 -0.015136 -0.969284
			-0.944201 -0.061697  0.323539
			-0.977435 -0.130649  0.165988
			-0.904008 -0.089314  0.418082
			-0.920104 -0.182868 -0.346364
			-0.802822 -0.040697 -0.594829
			-0.815071 -0.136587 -0.563030
			-0.622108 -0.070685 -0.779734
			-0.727601 -0.199632 -0.656311
			-0.536365 -0.110147 -0.836768
			-0.781760 -0.132794  0.609275
			-0.700182 -0.156749  0.696545
			-0.895872 -0.155129  0.416350
			-0.823414 -0.150421  0.547141
			-0.083648 -0.016710 -0.996355
			-0.281358 -0.080984 -0.956180
			-0.394863 -0.202768 -0.896085
			-0.286178 -0.086990 -0.954219
			-0.124696 -0.148123 -0.981076
			 0.029720 -0.057536 -0.997901
			 0.056012 -0.101910 -0.993216
			 0.828968 -0.107623  0.548843
			 0.742327 -0.105367  0.661702
			 0.878161 -0.157739  0.451611
			 0.964030 -0.178645  0.196804
			 0.160080 -0.135139 -0.977810
			 0.248900 -0.252448 -0.935050
			 0.093448 -0.213409 -0.972483
			 0.133751 -0.173284 -0.975748
			 0.977478 -0.203597 -0.055553
			 0.186418 -0.348228 -0.918687
			 0.289826 -0.401313 -0.868878
			 0.870988 -0.299929 -0.389130
			 0.651311 -0.342505 -0.677115
			-0.291291 -0.151536  0.944556
			 0.078834 -0.041005  0.996044
			-0.050678 -0.104695  0.993212
			-0.132444 -0.169966  0.976509
			-0.534693 -0.154952  0.830719
			 0.242091 -0.018608  0.970075
			 0.358363 -0.084024  0.929794
			 0.769607 -0.182926  0.611754
			 0.668189 -0.178957  0.722148
			 0.378212 -0.055964  0.924026
			 0.533471 -0.094472  0.840526
			 0.585378 -0.127360  0.800695
			 0.423014 -0.066264  0.903697
			-0.932927 -0.187688  0.307280
			-0.945820 -0.199017  0.256550
			-0.942861 -0.200521 -0.266093
			-0.967775 -0.243512  0.064133
			-0.499866 -0.153028 -0.852477
			-0.408873 -0.164928 -0.897564
			-0.681839 -0.274883 -0.677891
			-0.450078 -0.188219 -0.872928
			-0.799353 -0.216823  0.560377
			-0.678808 -0.166757  0.715131
			-0.755025 -0.171099  0.632979
			-0.897350 -0.170832  0.406915
			-0.124117 -0.196615 -0.972593
			-0.449261 -0.313398 -0.836628
			-0.349824 -0.234540 -0.906981
			 0.004860 -0.145911 -0.989286
			 0.066104 -0.141094 -0.987787
			 0.923381 -0.195762  0.330219
			 0.863826 -0.179509  0.470724
			 0.965896 -0.239542  0.098311
			 0.038613 -0.270277 -0.962008
			 0.034754 -0.246101 -0.968621
			 0.069357 -0.205477 -0.976201
			 0.066683 -0.270719 -0.960346
			 0.088016 -0.163995 -0.982527
			 0.948185 -0.299385 -0.106364
			-0.034325 -0.342812 -0.938777
			 0.606078 -0.431504 -0.668187
			-0.009197 -0.438657 -0.898608
			 0.433892 -0.447948 -0.781717
			 0.844363 -0.370955 -0.386579
			-0.269023 -0.122589  0.955300
			-0.158271 -0.056553  0.985775
			-0.083322  0.029511  0.996086
			 0.095849  0.061922  0.993468
			-0.230325 -0.090570  0.968890
			-0.639857 -0.150846  0.753544
			-0.455033 -0.119176  0.882464
			 0.247350  0.041577  0.968034
			 0.838839 -0.205181  0.504232
			 0.760888 -0.167315  0.626941
			 0.653386 -0.126464  0.746387
			 0.590122 -0.087544  0.802554
			 0.449628  0.004918  0.893202
			 0.606080 -0.111856  0.787500
			-0.871040 -0.246201  0.425058
			-0.944939 -0.239456  0.223049
			-0.891841 -0.280597  0.354803
			-0.706659 -0.365761 -0.605683
			-0.703000 -0.306975 -0.641527
			-0.945282 -0.265499 -0.189613
			-0.890019 -0.397081 -0.224038
			-0.923993 -0.373518  0.081977
			-0.922044 -0.301297  0.243013
			-0.765528 -0.266023  0.585832
			-0.670093 -0.175160  0.721314
			-0.754853 -0.193148  0.626810
			-0.833781 -0.279717  0.475991
			 0.056886 -0.175788 -0.982783
			 0.031417 -0.242791 -0.969570
			-0.220691 -0.251280 -0.942419
			-0.400630 -0.264368 -0.877272
			-0.315567 -0.438173 -0.841678
			-0.173046 -0.361786 -0.916060
			 0.900747 -0.235975  0.364651
			 0.956711 -0.272559  0.102058
			 0.944188 -0.320903 -0.074368
			-0.133344 -0.306108 -0.942612
			 0.030447 -0.318854 -0.947315
			 0.062796 -0.245721 -0.967305
			 0.071142 -0.276420 -0.958400
			 0.110291 -0.278327 -0.954133
			 0.120228 -0.294459 -0.948071
			 0.024850 -0.288680 -0.957103
			 0.727989 -0.433305 -0.531300
			-0.276828 -0.329321 -0.902726
			-0.137458 -0.351173 -0.926165
			 0.521440 -0.479885 -0.705556
			 0.116568 -0.450364 -0.885203
			 0.903355 -0.344074 -0.256054
			-0.343296 -0.036268  0.938527
			-0.351962 -0.093828  0.931300
			-0.219912 -0.026345  0.975164
			-0.144785  0.050898  0.988153
			-0.229957  0.009986  0.973150
			-0.001785  0.090229  0.995919
			 0.075714  0.096519  0.992447
			-0.526294 -0.097277  0.844720
			-0.585134 -0.115815  0.802624
			-0.421033 -0.114404  0.899802
			 0.116494  0.120471  0.985858
			 0.249749  0.179147  0.951594
			 0.333189  0.086082  0.938922
			 0.864620 -0.179323  0.469335
			 0.857793 -0.146717  0.492611
			 0.710212 -0.097459  0.697210
			 0.628013 -0.075034  0.774577
			 0.815122 -0.102435  0.570160
			 0.485275  0.050263  0.872915
			 0.385330  0.141173  0.911916
			-0.889978 -0.331010  0.313641
			-0.835558 -0.231226  0.498375
			-0.879188 -0.306077  0.365165
			-0.736337 -0.431265 -0.521362
			-0.433890 -0.476888 -0.764407
			-0.842929 -0.453869 -0.288917
			-0.940300 -0.322656  0.108297
			-0.718653 -0.461297 -0.520329
			-0.901092 -0.345838  0.261591
			-0.897683 -0.397703 -0.189728
			-0.720822 -0.178536  0.669732
			-0.520796 -0.033684  0.853016
			-0.543649  0.005033  0.839298
			-0.065510 -0.287819 -0.955442
			 0.038880 -0.312398 -0.949155
			-0.270157 -0.463151 -0.844101
			 0.040297 -0.334055 -0.941692
			-0.239708 -0.411564 -0.879292
			-0.063066 -0.380196 -0.922753
			 0.147848 -0.353660 -0.923616
			 0.897601 -0.148829  0.414924
			 0.946122 -0.171446  0.274698
			 0.945206 -0.294887 -0.140100
			 0.975241 -0.221141  0.001419
			 0.980031 -0.181397  0.081448
			-0.176049 -0.345817 -0.921638
			 0.136188 -0.312690 -0.940041
			-0.046743 -0.277207 -0.959673
			 0.225123 -0.310052 -0.923681
			 0.176018 -0.214502 -0.960732
			 0.067591 -0.176787 -0.981926
			-0.119710 -0.327949 -0.937080
			 0.813429 -0.345660 -0.467817
			-0.278199 -0.371578 -0.885740
			-0.211527 -0.239708 -0.947521
			 0.066168 -0.214398 -0.974503
			 0.647476 -0.292783 -0.703600
			 0.395064 -0.389898 -0.831807
			 0.190279 -0.288707 -0.938319
			 0.898790 -0.233293 -0.371148
			-0.303051 -0.008433  0.952937
			-0.254094 -0.044047  0.966176
			-0.200518  0.058838  0.977922
			-0.084879  0.100262  0.991334
			-0.101220  0.099000  0.989926
			-0.491753 -0.075645  0.867443
			-0.275483 -0.125252  0.953111
			-0.357071 -0.066445  0.931711
			-0.002257  0.233345  0.972391
			 0.160166  0.361196  0.918632
			 0.335184  0.195183  0.921713
			 0.239974  0.403127  0.883120
			 0.886684 -0.095713  0.452360
			 0.775238 -0.039623  0.630425
			 0.833753 -0.040739  0.550633
			 0.678248  0.007157  0.734798
			 0.500326  0.050393  0.864369
			 0.303537  0.309312  0.901217
			 0.468227  0.145943  0.871473
			-0.903898 -0.315255  0.289106
			-0.897212 -0.259385  0.357395
			-0.721046 -0.059614  0.690318
			-0.867694 -0.141903  0.476415
			-0.479860 -0.470538 -0.740492
			-0.737729 -0.359097 -0.571669
			-0.915513 -0.297541 -0.270750
			-0.963916 -0.256662 -0.070639
			-0.937078 -0.218424  0.272353
			-0.967827 -0.243502  0.063384
			-0.511784 -0.418604 -0.750232
			-0.333022  0.041254  0.942016
			-0.379578  0.108030  0.918831
			-0.437327  0.084828  0.895293
			-0.527268  0.067052  0.847049
			 0.027356 -0.394966 -0.918288
			 0.122858 -0.392465 -0.911525
			-0.326781 -0.329232 -0.885901
			-0.449910 -0.366075 -0.814598
			-0.117238 -0.342618 -0.932131
			-0.079835 -0.321397 -0.943573
			 0.924163 -0.088095  0.371702
			 0.980689 -0.081513  0.177779
			 0.962740 -0.240340 -0.123969
			 0.989285 -0.144201  0.022852
			 0.976974 -0.185274 -0.105804
			-0.234581 -0.308259 -0.921926
			-0.028597 -0.072076 -0.996989
			-0.173968 -0.216479 -0.960662
			 0.158716 -0.407799 -0.899171
			 0.315994 -0.278858 -0.906855
			 0.278976 -0.110696 -0.953897
			 0.134238 -0.055334 -0.989403
			 0.001130 -0.048587 -0.998818
			-0.060397 -0.123721 -0.990477
			 0.520460 -0.176074 -0.835535
			 0.205168 -0.042057 -0.977823
			 0.994026 -0.067099 -0.086084
			 0.868786 -0.090540 -0.486840
			-0.205588  0.101037  0.973409
			-0.310388  0.107249  0.944541
			-0.201482  0.250082  0.947029