<?xml version="1.0"?>
<VTKFile type="PolyData" version="0.1" byte_order="LittleEndian" compressor="vtkZLibDataCompressor">
	<PolyData>
		<Piece NumberOfPoints="198" NumberOfVerts="0" NumberOfLines="0" NumberOfStrips="0" NumberOfPolys="392">
		<PointData Normals="Normals">
		<DataArray type="Float32" Name="Normals" NumberOfComponents="3" format="ascii">
			-0.010563  0.961171 -0.275751
			-0.008196  0.996277 -0.085824
			 0.204160  0.960915 -0.186978
			-0.117589  0.972282 -0.202092
			 0.577889  0.587362 -0.566612
			-0.157322  0.310168 -0.937574
			 0.257525  0.956403 -0.137744
			 0.037370  0.998192 -0.047085
			-0.022296  0.995983 -0.086725
			-0.425992  0.842008  0.330989
			-0.146466  0.983665 -0.104643
			 0.920896  0.389631 -0.011768
			-0.569375  0.499629 -0.652827
			 0.605447 -0.430092 -0.669668
			 0.977387 -0.167156  0.129510
			-0.010488 -0.353529 -0.935365
			 0.643933  0.513249  0.567385
			-0.012959  0.683009  0.730295
			-0.892126  0.451022  0.026285
			-0.587922 -0.100303  0.802675
			-0.940076 -0.245788  0.236316
			 0.597167 -0.293564  0.746466
			-0.637946 -0.322912 -0.699109
			 0.802643 -0.171211 -0.571360
			 0.939771 -0.113846  0.322286
			 0.479207 -0.043901  0.876603
			 0.160921 -0.164105 -0.973229
			 0.069056 -0.255425  0.964360
			-0.738086 -0.113174  0.665147
			-0.981723 -0.185818  0.041116
			-0.706840 -0.357166 -0.610581
			-0.214826 -0.101685  0.971345
			 0.846299  0.083562 -0.526113
			 0.931300  0.119182  0.344203
			 0.409776  0.062289  0.910057
			-0.275121 -0.013567  0.961314
			 0.075275 -0.012365 -0.997086
			-0.754381 -0.053642  0.654242
			-0.997989 -0.058361  0.024737
			-0.749353 -0.071132 -0.658339
			 0.918081  0.241673  0.314200
			 0.833077  0.138450 -0.535550
			 0.288303  0.189462  0.938608
			-0.472468  0.071906  0.878410
			-0.882757 -0.009935  0.469724
			 0.268541  0.114127 -0.956484
			-0.950435  0.014692 -0.310576
			-0.418266  0.033823 -0.907695
			 0.960999  0.243049  0.131937
			 0.316908  0.204339  0.926183
			 0.778342  0.085334 -0.622014
			-0.455724  0.039329  0.889252
			-0.851348 -0.085388  0.517605
			-0.921867 -0.263104 -0.284494
			 0.295220 -0.089306 -0.951246
			-0.385107 -0.212117 -0.898164
			 0.980512  0.190841  0.046642
			 0.422239  0.175489  0.889335
			-0.427905 -0.001632  0.903822
			 0.742998  0.015739 -0.669109
			-0.822176 -0.174417  0.541853
			-0.922163 -0.278664 -0.268257
			-0.058172 -0.238707 -0.969348
			 0.968766  0.240273  0.061331
			 0.444817  0.203392  0.872221
			-0.340178  0.043697  0.939345
			-0.860155 -0.160296  0.484188
			 0.718307  0.020780 -0.695416
			-0.886527 -0.371375 -0.275955
			-0.467990 -0.281434 -0.837723
			 0.164517 -0.178683 -0.970055
			 0.969882  0.222775  0.098486
			 0.559061  0.243001  0.792717
			-0.186645  0.078602  0.979278
			-0.812514 -0.095237  0.575109
			-0.874449 -0.290282 -0.388683
			 0.750874  0.073769 -0.656313
			-0.504409 -0.368846 -0.780720
			-0.006338 -0.231736 -0.972758
			 0.917286  0.317241  0.240717
			 0.600426  0.278769  0.749517
			 0.129000  0.181198  0.974949
			-0.593821 -0.027186  0.804138
			-0.881305 -0.242908 -0.405336
			-0.442774 -0.285906 -0.849829
			 0.768518  0.122575 -0.627977
			-0.038193 -0.210696 -0.976805
			 0.947943  0.257046  0.187968
			 0.463684  0.299922  0.833693
			-0.052019  0.193161  0.979787
			-0.468488  0.015372  0.883336
			-0.929630 -0.237303 -0.281915
			-0.289946 -0.204893 -0.934853
			-0.026836 -0.195174 -0.980401
			 0.785002  0.058621 -0.616713
			 0.947876  0.179752  0.263098
			 0.546700  0.183271  0.817026
			-0.251046  0.114735  0.961151
			-0.690048 -0.006131  0.723738
			-0.954615 -0.210732 -0.210483
			-0.251676 -0.165593 -0.953540
			-0.004107 -0.138500 -0.990354
			 0.823314  0.051149 -0.565277
			 0.986402  0.108139  0.123762
			 0.565692  0.118969  0.815990
			-0.272207  0.046587  0.961110
			-0.804007 -0.027014  0.594005
			-0.931892 -0.140819 -0.334286
			-0.228591 -0.117545 -0.966400
			-0.067328 -0.097709 -0.992935
			 0.653285 -0.013435 -0.756993
			 0.997483  0.069710  0.012928
			 0.693345  0.106296  0.712723
			-0.240658  0.059515  0.968784
			-0.823212  0.029444  0.566970
			-0.934068 -0.051495 -0.353362
			-0.286347 -0.089755 -0.953913
			-0.274813 -0.094051 -0.956887
			 0.582655 -0.036221 -0.811912
			-0.069545 -0.087906 -0.993698
			 0.995763  0.090286 -0.017430
			 0.744502  0.130563  0.654729
			 0.111823  0.124743  0.985868
			-0.659900  0.098440  0.744877
			-0.996627  0.050382 -0.064781
			-0.304252 -0.059601 -0.950725
			-0.113756 -0.091172 -0.989317
			 0.435293 -0.050426 -0.898875
			 0.842527  0.148803 -0.517692
			 0.813742  0.155356  0.560079
			 0.436637  0.170022  0.883425
			-0.260956  0.199116  0.944592
			-0.772628  0.211318  0.598657
			-0.818658  0.125594 -0.560379
			-0.082331  0.018898 -0.996426
			 0.161976  0.002849 -0.986791
			 0.093727  0.212926 -0.972562
			 0.683818  0.437879 -0.583657
			 0.886837  0.345497  0.306842
			 0.525053  0.300001  0.796441
			-0.047296  0.274502  0.960423
			-0.390082  0.309393  0.867244
			-0.871848  0.365335  0.326209
			-0.524338  0.304636 -0.795152
			 0.007606  0.073008 -0.997302
			-0.026106  0.216446 -0.975946
			 0.024460  0.281248 -0.959323
			-0.030370  0.405237 -0.913707
			 0.668719  0.441921 -0.597931
			 0.763985  0.291556  0.575606
			 0.568093  0.098692  0.817025
			 0.172707  0.161749  0.971601
			-0.257064  0.178791  0.949712
			-0.714797  0.315612  0.624062
			-0.890257  0.330745 -0.313129
			-0.113079  0.452214 -0.884712
			 0.061101  0.452013 -0.889916
			 0.160936  0.061335 -0.985057
			 0.056527 -0.172281 -0.983425
			 0.550547 -0.209618 -0.808059
			 0.997374 -0.048367  0.053898
			 0.621038 -0.132073  0.772573
			 0.246549 -0.362868  0.898632
			-0.102631 -0.398406  0.911449
			-0.098256 -0.165482  0.981306
			-0.718020 -0.130959  0.683592
			-0.999064  0.039632  0.017321
			-0.886331  0.299236 -0.353377
			-0.170426  0.098246 -0.980460
			 0.035309 -0.841693 -0.538801
			-0.120706 -0.926524 -0.356346
			-0.109738 -0.704025 -0.701645
			-0.149658 -0.780563 -0.606897
			-0.062098 -0.778354 -0.624746
			-0.035117 -0.982659  0.182064
			-0.325427 -0.811265  0.485744
			-0.340993 -0.895759  0.285201
			-0.173308 -0.984323  0.032748
			 0.037135 -0.934837  0.353129
			-0.035274 -0.914629  0.402753
			-0.666855 -0.712662 -0.217754
			-0.809892 -0.586493  0.010050
			-0.434076 -0.900519  0.025355
			-0.359219 -0.884610 -0.297367
			-0.368003 -0.920860  0.128806
			-0.358662 -0.877167  0.319279
			-0.497937 -0.864066  0.073814
			-0.602100 -0.744136 -0.289374
			-0.648663 -0.757947 -0.068944
			-0.551346 -0.834224 -0.009380
			-0.337919 -0.907581 -0.249213
			-0.165561 -0.925444 -0.340798
			 0.009721 -0.963764 -0.266579
			-0.114316 -0.909101 -0.400583
			-0.173141 -0.927041 -0.332590
			-0.123035 -0.991932 -0.030539
			-0.097594 -0.976551  0.191896
			-0.294955 -0.953792 -0.057291
		</DataArray>
	</PointData>
	<Points>
		<DataArray type="Float32" NumberOfComponents="3" format="ascii">
			-0.000663  0.001141 -0.007926
			-0.000244  0.000079 -0.000571
			 0.005261  0.001284 -0.006012
			-0.005168  0.001347 -0.004522
			 0.007116  0.000199 -0.007611
			-0.000602 -0.000110 -0.009740
			 0.007840  0.002032  0.000350
			 0.006718  0.002672  0.005658
			 0.001144  0.002726  0.008383
			-0.003573  0.002622  0.007855
			-0.006591  0.001676  0.001405
			 0.010043  0.000726  0.002515
			-0.006925  0.000269 -0.006279
			 0.007687 -0.004630 -0.007334
			 0.009805 -0.003641 -0.000804
			-0.000542 -0.005466 -0.005707
			 0.008167  0.002207  0.007880
			 0.001660  0.002445  0.010986
			-0.009110  0.000781  0.002362
			-0.003523 -0.002781  0.009753
			-0.008682 -0.005329  0.002825
			 0.006226 -0.002120  0.008214
			-0.006452 -0.006752 -0.005815
			 0.005889 -0.011244 -0.002114
			 0.006486 -0.009869  0.003870
			 0.003388 -0.010406  0.007377
			 0.001098 -0.011968 -0.004740
			 0.000228 -0.001737  0.010266
			-0.004740 -0.010736  0.005749
			-0.005664 -0.011213  0.001885
			-0.003801 -0.011508 -0.002903
			-0.001800 -0.009566  0.007759
			 0.006693 -0.020556 -0.001332
			 0.006809 -0.019403  0.004370
			 0.003803 -0.018980  0.007532
			-0.001246 -0.019737  0.008083
			 0.002339 -0.022182 -0.004117
			-0.003758 -0.020555  0.006556
			-0.004921 -0.020889  0.004477
			-0.003768 -0.021220 -0.000774
			 0.008188 -0.025203  0.004387
			 0.007679 -0.026463 -0.000704
			 0.003468 -0.024579  0.008609
			-0.002414 -0.025895  0.007759
			-0.004952 -0.027661  0.004399
			 0.003786 -0.029199 -0.004890
			-0.005797 -0.029058 -0.000293
			 0.000425 -0.029366 -0.004772
			 0.010443 -0.032773  0.004231
			 0.005397 -0.033317  0.010214
			 0.007661 -0.034872 -0.001713
			-0.000663 -0.034126  0.009338
			-0.003614 -0.035429  0.006318
			-0.005162 -0.037697  0.000956
			 0.004524 -0.035997 -0.004201
			 0.000914 -0.037639 -0.003847
			 0.011568 -0.038498  0.003984
			 0.007630 -0.037800  0.010503
			 0.000313 -0.039747  0.009830
			 0.009608 -0.039884 -0.000164
			-0.002147 -0.040081  0.007409
			-0.004257 -0.041036  0.001900
			 0.004012 -0.041539 -0.003505
			 0.012890 -0.044431  0.005265
			 0.007680 -0.044072  0.011170
			 0.003132 -0.045595  0.011400
			-0.000303 -0.046186  0.008291
			 0.010470 -0.046028  0.000932
			-0.001627 -0.047961  0.001378
			 0.000945 -0.046449 -0.001005
			 0.005117 -0.048330 -0.001948
			 0.015937 -0.056609  0.007883
			 0.012696 -0.056393  0.012460
			 0.007434 -0.057634  0.013116
			 0.002616 -0.060151  0.010335
			 0.002474 -0.060677  0.006311
			 0.014160 -0.058272  0.003216
			 0.006860 -0.060889  0.002829
			 0.009604 -0.060699  0.001192
			 0.018484 -0.071250  0.010812
			 0.014718 -0.071249  0.014394
			 0.013854 -0.070830  0.015041
			 0.006855 -0.071939  0.013166
			 0.004052 -0.073763  0.008531
			 0.008958 -0.073410  0.006413
			 0.017871 -0.071537  0.005416
			 0.013947 -0.073959  0.003978
			 0.024102 -0.086640  0.013489
			 0.020914 -0.086554  0.017864
			 0.018983 -0.086771  0.017993
			 0.013342 -0.087976  0.017284
			 0.007002 -0.091231  0.010799
			 0.013518 -0.088819  0.009421
			 0.018399 -0.088134  0.006844
			 0.022738 -0.087151  0.008487
			 0.027161 -0.113552  0.019175
			 0.024123 -0.113602  0.023329
			 0.022093 -0.114228  0.024204
			 0.017034 -0.115662  0.018812
			 0.013148 -0.116584  0.014604
			 0.017488 -0.115600  0.012528
			 0.022498 -0.115268  0.011420
			 0.028189 -0.114538  0.013517
			 0.031757 -0.138656  0.018335
			 0.029234 -0.138535  0.025448
			 0.024697 -0.139179  0.025464
			 0.019354 -0.140294  0.021693
			 0.016874 -0.140180  0.016542
			 0.020827 -0.139236  0.015584
			 0.024921 -0.138902  0.014833
			 0.031056 -0.139099  0.015552
			 0.033567 -0.165754  0.019984
			 0.031077 -0.167226  0.025744
			 0.025359 -0.165510  0.027262
			 0.021127 -0.165702  0.023140
			 0.020140 -0.165764  0.019341
			 0.023132 -0.166298  0.017638
			 0.026481 -0.165813  0.016865
			 0.031772 -0.166010  0.016793
			 0.028526 -0.165548  0.015975
			 0.034822 -0.183559  0.023066
			 0.032605 -0.183150  0.027092
			 0.029285 -0.181391  0.028816
			 0.021235 -0.183477  0.024609
			 0.018803 -0.183304  0.020676
			 0.022082 -0.183472  0.018763
			 0.027223 -0.183985  0.018557
			 0.031901 -0.183774  0.018359
			 0.038454 -0.207336  0.023605
			 0.035626 -0.205968  0.027848
			 0.032421 -0.206082  0.030707
			 0.025938 -0.207635  0.032486
			 0.019137 -0.208329  0.028458
			 0.018373 -0.208316  0.022234
			 0.028520 -0.208515  0.020408
			 0.032726 -0.207778  0.020245
			 0.035421 -0.219414  0.019987
			 0.040370 -0.217749  0.020168
			 0.039654 -0.216901  0.026395
			 0.033374 -0.218023  0.033021
			 0.027222 -0.218636  0.035127
			 0.019930 -0.218398  0.031912
			 0.016275 -0.217636  0.029814
			 0.016353 -0.217726  0.020745
			 0.031300 -0.213631  0.019984
			 0.027943 -0.219908  0.019580
			 0.030947 -0.221444  0.019179
			 0.034446 -0.224354  0.018235
			 0.041934 -0.223399  0.017552
			 0.042845 -0.223983  0.028657
			 0.038138 -0.223831  0.031597
			 0.030868 -0.223377  0.036898
			 0.024740 -0.223255  0.035407
			 0.014134 -0.223544  0.032653
			 0.014694 -0.222788  0.020183
			 0.020968 -0.223103  0.017960
			 0.028020 -0.223575  0.018578
			 0.028805 -0.229946  0.014878
			 0.035983 -0.229631  0.015372
			 0.042146 -0.228180  0.016557
			 0.045851 -0.228802  0.025837
			 0.039408 -0.229758  0.030622
			 0.032099 -0.230394  0.036068
			 0.026936 -0.229893  0.036177
			 0.017606 -0.229293  0.034381
			 0.013133 -0.228605  0.033805
			 0.014730 -0.227596  0.025821
			 0.011605 -0.228538  0.017849
			 0.016929 -0.229573  0.012210
			 0.028093 -0.233968  0.018621
			 0.022629 -0.234024  0.014434
			 0.033467 -0.235151  0.018757
			 0.038205 -0.237979  0.020779
			 0.040291 -0.240193  0.022155
			 0.041017 -0.243321  0.024656
			 0.039330 -0.240556  0.027555
			 0.034971 -0.236156  0.029891
			 0.027894 -0.235222  0.032002
			 0.019586 -0.233692  0.031417
			 0.016192 -0.234882  0.032184
			 0.014360 -0.233941  0.031942
			 0.014858 -0.230073  0.026205
			 0.010637 -0.231829  0.017125
			 0.017850 -0.232712  0.014670
			 0.023393 -0.233290  0.019433
			 0.021822 -0.231774  0.019785
			 0.034594 -0.235234  0.023780
			 0.035704 -0.236222  0.025006
			 0.036150 -0.237155  0.026469
			 0.034481 -0.235797  0.027891
			 0.031760 -0.234680  0.028743
			 0.027440 -0.233126  0.028645
			 0.022915 -0.232759  0.027914
			 0.020431 -0.231751  0.026464
			 0.019514 -0.231326  0.024855
			 0.018471 -0.230653  0.023551
			 0.018834 -0.231011  0.020944
			 0.026581 -0.232001  0.024019
		</DataArray>
	</Points>
			<Polys>
				<DataArray type="Int32" Name="connectivity" format="ascii">
					0 1 2 
					3 1 0 
					4 5 0 
					2 4 0 
					0 5 3 
					2 1 6 
					6 1 7 
					7 1 8 
					8 1 9 
					9 1 10 
					10 1 3 
					11 4 2 
					6 11 2 
					3 12 10 
					5 12 3 
					4 13 5 
					14 13 4 
					11 14 4 
					13 15 5 
					5 15 12 
					16 11 6 
					7 16 6 
					17 16 7 
					8 17 7 
					9 17 8 
					10 18 9 
					9 19 17 
					20 19 9 
					18 20 9 
					12 18 10 
					21 14 11 
					16 21 11 
					12 22 18 
					15 22 12 
					13 23 15 
					24 23 13 
					14 24 13 
					25 24 14 
					21 25 14 
					23 26 15 
					15 26 22 
					27 21 16 
					17 27 16 
					19 27 17 
					22 20 18 
					19 28 27 
					29 28 19 
					20 29 19 
					30 29 20 
					22 30 20 
					31 25 21 
					27 31 21 
					26 30 22 
					23 32 26 
					33 32 23 
					24 33 23 
					34 33 24 
					25 34 24 
					35 34 25 
					31 35 25 
					26 36 30 
					26 32 36 
					28 31 27 
					28 37 31 
					38 37 28 
					29 38 28 
					39 38 29 
					30 39 29 
					36 39 30 
					37 35 31 
					40 41 32 
					33 40 32 
					32 41 36 
					42 40 33 
					34 42 33 
					43 42 34 
					35 43 34 
					44 43 35 
					37 44 35 
					36 45 39 
					41 45 36 
					46 44 37 
					38 46 37 
					47 46 38 
					39 47 38 
					45 47 39 
					40 48 41 
					49 48 40 
					42 49 40 
					41 50 45 
					48 50 41 
					51 49 42 
					43 51 42 
					52 51 43 
					44 52 43 
					53 52 44 
					46 53 44 
					50 54 45 
					45 54 47 
					55 53 46 
					47 55 46 
					54 55 47 
					48 56 50 
					57 56 48 
					49 57 48 
					58 57 49 
					51 58 49 
					50 59 54 
					56 59 50 
					60 58 51 
					52 60 51 
					61 60 52 
					53 61 52 
					62 61 53 
					55 62 53 
					59 62 54 
					54 62 55 
					56 63 59 
					64 63 56 
					57 64 56 
					65 64 57 
					58 65 57 
					66 65 58 
					60 66 58 
					59 67 62 
					63 67 59 
					68 66 60 
					61 68 60 
					69 68 61 
					62 69 61 
					67 70 62 
					70 69 62 
					63 71 67 
					72 71 63 
					64 72 63 
					73 72 64 
					65 73 64 
					74 73 65 
					66 74 65 
					75 74 66 
					68 75 66 
					67 76 70 
					71 76 67 
					77 75 68 
					69 77 68 
					78 77 69 
					70 78 69 
					76 78 70 
					71 79 76 
					80 79 71 
					72 80 71 
					81 80 72 
					73 81 72 
					82 81 73 
					74 82 73 
					83 82 74 
					75 83 74 
					84 83 75 
					77 84 75 
					76 85 78 
					79 85 76 
					86 84 77 
					78 86 77 
					85 86 78 
					79 87 85 
					88 87 79 
					80 88 79 
					89 88 80 
					81 89 80 
					90 89 81 
					82 90 81 
					91 90 82 
					83 91 82 
					92 91 83 
					84 92 83 
					93 92 84 
					86 93 84 
					85 94 86 
					87 94 85 
					94 93 86 
					87 95 94 
					96 95 87 
					88 96 87 
					97 96 88 
					89 97 88 
					98 97 89 
					90 98 89 
					99 98 90 
					91 99 90 
					100 99 91 
					92 100 91 
					101 100 92 
					93 101 92 
					94 102 93 
					95 102 94 
					102 101 93 
					95 103 102 
					104 103 95 
					96 104 95 
					105 104 96 
					97 105 96 
					106 105 97 
					98 106 97 
					107 106 98 
					99 107 98 
					108 107 99 
					100 108 99 
					109 108 100 
					101 109 100 
					102 110 101 
					110 109 101 
					103 110 102 
					103 111 110 
					112 111 103 
					104 112 103 
					113 112 104 
					105 113 104 
					114 113 105 
					106 114 105 
					115 114 106 
					107 115 106 
					116 115 107 
					108 116 107 
					117 116 108 
					109 117 108 
					110 118 109 
					119 109 118 
					119 117 109 
					111 118 110 
					111 120 118 
					121 120 111 
					112 121 111 
					122 121 112 
					113 122 112 
					123 122 113 
					114 123 113 
					124 123 114 
					115 124 114 
					125 124 115 
					116 125 115 
					126 125 116 
					117 126 116 
					119 126 117 
					120 127 118 
					127 119 118 
					126 119 127 
					120 128 127 
					129 128 120 
					121 129 120 
					130 129 121 
					122 130 121 
					131 130 122 
					123 131 122 
					132 131 123 
					124 132 123 
					133 132 124 
					125 133 124 
					134 133 125 
					126 134 125 
					135 126 127 
					126 135 134 
					128 135 127 
					128 136 135 
					128 137 136 
					129 137 128 
					129 138 137 
					129 139 138 
					130 139 129 
					130 140 139 
					131 140 130 
					131 141 140 
					132 141 131 
					132 142 141 
					133 142 132 
					133 143 142 
					134 143 133 
					135 144 134 
					134 145 143 
					134 144 145 
					136 144 135 
					136 146 144 
					137 147 136 
					146 136 147 
					137 148 147 
					138 148 137 
					138 149 148 
					139 149 138 
					139 150 149 
					139 151 150 
					140 151 139 
					140 152 151 
					141 152 140 
					141 153 152 
					142 153 141 
					142 154 153 
					143 154 142 
					143 155 154 
					145 155 143 
					144 146 145 
					146 155 145 
					146 156 155 
					146 157 156 
					146 147 157 
					147 158 157 
					148 158 147 
					148 159 158 
					148 160 159 
					149 160 148 
					149 161 160 
					150 161 149 
					150 162 161 
					151 162 150 
					151 163 162 
					152 163 151 
					152 164 163 
					153 164 152 
					153 165 164 
					153 166 165 
					154 166 153 
					155 167 154 
					154 167 166 
					155 168 167 
					156 168 155 
					156 157 168 
					158 169 157 
					157 170 168 
					157 169 170 
					158 171 169 
					158 172 171 
					159 172 158 
					159 173 172 
					160 173 159 
					160 174 173 
					161 174 160 
					161 175 174 
					162 175 161 
					162 176 175 
					163 176 162 
					163 177 176 
					163 178 177 
					164 178 163 
					164 179 178 
					165 179 164 
					165 180 179 
					166 180 165 
					167 181 166 
					166 181 180 
					167 182 181 
					167 183 182 
					168 183 167 
					168 170 183 
					169 184 170 
					184 169 171 
					170 185 183 
					184 185 170 
					172 184 171 
					186 184 172 
					173 186 172 
					187 186 173 
					174 187 173 
					188 187 174 
					175 188 174 
					189 188 175 
					176 189 175 
					190 189 176 
					177 190 176 
					191 190 177 
					178 191 177 
					192 191 178 
					179 192 178 
					193 192 179 
					180 193 179 
					181 194 180 
					194 193 180 
					195 194 181 
					182 195 181 
					196 195 182 
					183 196 182 
					185 196 183 
					186 197 184 
					197 185 184 
					197 196 185 
					197 186 187 
					197 187 188 
					197 188 189 
					197 189 190 
					197 190 191 
					197 191 192 
					197 192 193 
					197 193 194 
					197 194 195 
					197 195 196 
				</DataArray>
				<DataArray type="Int32" Name="offsets" format="ascii">
					3 6 9 12 15 18 21 24 27 30 33 36 39 42 45 48 51 54 57 60 63 66 69 72 75 78 81 84 87 90 93 96 99 102 105 108 111 114 117 120 123 126 129 132 135 138 141 144 147 150 153 156 159 162 165 168 171 174 177 180 183 186 189 192 195 198 201 204 207 210 213 216 219 222 225 228 231 234 237 240 243 246 249 252 255 258 261 264 267 270 273 276 279 282 285 288 291 294 297 300 303 306 309 312 315 318 321 324 327 330 333 336 339 342 345 348 351 354 357 360 363 366 369 372 375 378 381 384 387 390 393 396 399 402 405 408 411 414 417 420 423 426 429 432 435 438 441 444 447 450 453 456 459 462 465 468 471 474 477 480 483 486 489 492 495 498 501 504 507 510 513 516 519 522 525 528 531 534 537 540 543 546 549 552 555 558 561 564 567 570 573 576 579 582 585 588 591 594 597 600 603 606 609 612 615 618 621 624 627 630 633 636 639 642 645 648 651 654 657 660 663 666 669 672 675 678 681 684 687 690 693 696 699 702 705 708 711 714 717 720 723 726 729 732 735 738 741 744 747 750 753 756 759 762 765 768 771 774 777 780 783 786 789 792 795 798 801 804 807 810 813 816 819 822 825 828 831 834 837 840 843 846 849 852 855 858 861 864 867 870 873 876 879 882 885 888 891 894 897 900 903 906 909 912 915 918 921 924 927 930 933 936 939 942 945 948 951 954 957 960 963 966 969 972 975 978 981 984 987 990 993 996 999 1002 1005 1008 1011 1014 1017 1020 1023 1026 1029 1032 1035 1038 1041 1044 1047 1050 1053 1056 1059 1062 1065 1068 1071 1074 1077 1080 1083 1086 1089 1092 1095 1098 1101 1104 1107 1110 1113 1116 1119 1122 1125 1128 1131 1134 1137 1140 1143 1146 1149 1152 1155 1158 1161 1164 1167 1170 1173 1176 
				</DataArray>
			</Polys>
		</Piece>
	</PolyData>
</VTKFile>
