<?xml version="1.0"?>
<VTKFile type="PolyData" version="0.1" byte_order="LittleEndian" compressor="vtkZLibDataCompressor">
	<PolyData>
		<Piece NumberOfPoints="633" NumberOfVerts="0" NumberOfLines="0" NumberOfStrips="0" NumberOfPolys="1274">
		<PointData Normals="Normals">
		<DataArray type="Float32" Name="Normals" NumberOfComponents="3" format="ascii">
			-0.221651  0.957111  0.186576
			-0.127441  0.906313  0.402934
			-0.178899  0.881012  0.437964
			-0.175998  0.963283  0.202757
			-0.121009  0.767750 -0.629219
			-0.104163  0.951831 -0.288387
			-0.217299  0.962296 -0.163607
			 0.010158  0.968620  0.248337
			-0.102433  0.994740  0.000918
			 0.057601  0.993766  0.095450
			 0.192332  0.928117  0.318759
			 0.025755  0.903106  0.428646
			 0.175100  0.911444  0.372303
			-0.236871  0.879112 -0.413587
			-0.198181  0.845962 -0.495047
			-0.171980  0.982793  0.067383
			 0.050349  0.786305 -0.615784
			-0.075996  0.671871 -0.736759
			-0.138259  0.365756 -0.920384
			-0.202004  0.415936 -0.886674
			 0.161279  0.886649 -0.433408
			 0.356545  0.933704  0.032744
			 0.299276  0.953770 -0.027500
			 0.206302  0.907498 -0.365907
			-0.157242  0.971925 -0.175033
			-0.230674  0.907168 -0.351903
			 0.193363  0.981126  0.001787
			-0.076329  0.984240 -0.159519
			-0.401405  0.883800  0.240357
			 0.366452  0.839397  0.401405
			 0.290485  0.877495  0.381602
			 0.341965  0.919335  0.194634
			-0.234321  0.560327 -0.794435
			-0.604908  0.750692 -0.265607
			-0.493853  0.446544 -0.746129
			 0.259060  0.703508 -0.661789
			-0.004542  0.528819 -0.848723
			-0.206740  0.015559 -0.978272
			-0.091021 -0.002940 -0.995845
			-0.339065  0.107596 -0.934590
			 0.344262  0.750581 -0.564014
			 0.371062  0.922014 -0.110465
			 0.356771  0.929329  0.095197
			 0.433868  0.881227 -0.187612
			-0.052035  0.996652 -0.063062
			 0.401576  0.915547  0.022584
			 0.410254  0.847264 -0.337396
			-0.311328  0.949762  0.032038
			-0.374870  0.926821  0.021806
			 0.011405  0.998883  0.045867
			 0.019273  0.992115 -0.123841
			-0.853136  0.521661  0.005411
			-0.789298  0.492431  0.366770
			-0.521914  0.841977  0.136679
			-0.856266  0.417440  0.304223
			-0.892833  0.381442  0.239481
			 0.368830  0.853828  0.367344
			 0.120850  0.970902  0.206747
			 0.250825  0.913161  0.321284
			-0.849909  0.222233 -0.477773
			-0.587719  0.109833 -0.801576
			 0.244038  0.346718 -0.905667
			-0.068609 -0.047427 -0.996516
			-0.083252 -0.142258 -0.986322
			-0.244297 -0.172758 -0.954187
			 0.070585 -0.136346 -0.988143
			-0.012206 -0.223992 -0.974515
			-0.394595 -0.076717 -0.915647
			 0.338946  0.616615 -0.710564
			 0.421492  0.842777 -0.334770
			 0.449998  0.558956 -0.696469
			 0.258268  0.954442 -0.149456
			 0.134534  0.853134  0.504046
			-0.242399  0.820056  0.518411
			 0.494916  0.781123 -0.380663
			 0.106782  0.675202  0.729863
			 0.465821  0.884876 -0.002046
			 0.394772  0.746002  0.536317
			 0.312021  0.903418 -0.294074
			 0.174943  0.874141 -0.453070
			-0.350906  0.849879  0.393154
			-0.503968  0.696559  0.510707
			-0.578656  0.454378  0.677272
			-0.965535  0.249348 -0.074618
			-0.767614  0.531608  0.357996
			-0.984349  0.174062  0.027556
			-0.932260  0.112936  0.343711
			-0.870366  0.121135  0.477273
			 0.134210  0.963290  0.232510
			 0.024146  0.999335  0.027339
			 0.346946  0.934946  0.074188
			-0.719229 -0.030279 -0.694113
			-0.910772 -0.042027 -0.410765
			 0.272056  0.435090 -0.858302
			 0.187073  0.074092 -0.979548
			 0.122263 -0.137134 -0.982978
			 0.108477 -0.125709 -0.986119
			-0.190083 -0.245794 -0.950502
			-0.026063 -0.221301 -0.974857
			-0.117479 -0.161058 -0.979928
			 0.003182 -0.200639 -0.979660
			-0.172073 -0.230166 -0.957818
			-0.264687 -0.145359 -0.953316
			-0.341537 -0.160790 -0.926013
			-0.205572 -0.206155 -0.956682
			-0.405901 -0.191622 -0.893603
			-0.015000 -0.187525 -0.982145
			-0.530704 -0.107595 -0.840700
			 0.319521  0.564313 -0.761221
			 0.547876  0.717249 -0.430563
			 0.446157  0.617454 -0.647838
			 0.344214  0.937576  0.049675
			-0.307756  0.532365  0.788590
			 0.298249  0.488717  0.819880
			-0.089228  0.251795  0.963658
			 0.490086  0.573367  0.656556
			 0.439021  0.510184  0.739576
			-0.745420  0.265036  0.611642
			-0.524539  0.526261  0.669259
			-0.654587  0.275193  0.704120
			-0.555252  0.433397  0.709832
			-0.589332  0.073088  0.804578
			-0.610210  0.093566  0.786695
			-0.613417  0.029698  0.789200
			-0.975507  0.031859 -0.217649
			-0.976800 -0.132671  0.168108
			-0.956098  0.011216  0.292833
			-0.989821 -0.140646  0.021755
			-0.759117 -0.004384  0.650940
			-0.947117 -0.078541  0.311127
			-0.769606 -0.109984  0.628975
			 0.350436  0.917478  0.188227
			 0.391224  0.919473  0.038895
			 0.554140  0.814100  0.173695
			-0.704527 -0.139163 -0.695898
			-0.943863 -0.135518 -0.301261
			-0.871728 -0.151454 -0.465996
			 0.281541  0.199013 -0.938685
			 0.169551 -0.059512 -0.983723
			 0.154401 -0.167731 -0.973666
			 0.089754 -0.242725 -0.965934
			 0.060025 -0.236145 -0.969862
			-0.130261 -0.206802 -0.969673
			 0.080738 -0.151875 -0.985097
			-0.368156 -0.098830 -0.924497
			-0.180525 -0.146671 -0.972573
			-0.726739 -0.180359 -0.662813
			 0.534229  0.305178 -0.788331
			 0.704234  0.330830 -0.628176
			 0.637025  0.709102 -0.302280
			 0.820444  0.469922  0.325646
			 0.609219  0.364294  0.704374
			 0.732865  0.435279  0.522916
			-0.399597  0.253636  0.880903
			 0.195299  0.226224  0.954296
			 0.366066  0.214284  0.905582
			-0.215204 -0.135748  0.967088
			-0.003802  0.052864  0.998595
			-0.348991  0.009633  0.937077
			 0.592626  0.147468  0.791863
			 0.469504  0.154155  0.869369
			-0.715092 -0.094791  0.692573
			-0.675663 -0.062457  0.734560
			-0.506428 -0.217801  0.834322
			-0.455171 -0.164860  0.875009
			-0.987888 -0.154193 -0.017368
			-0.943771 -0.187172  0.272514
			-0.863440 -0.268336  0.427161
			-0.649719 -0.185664  0.737153
			 0.781518  0.575206  0.241595
			 0.666462  0.739252  0.096617
			 0.884482  0.243369  0.398075
			 0.878454  0.348577  0.326822
			-0.969645 -0.179327 -0.166224
			-0.975623 -0.121335 -0.182859
			 0.211059 -0.152626 -0.965484
			 0.366928 -0.000031 -0.930249
			 0.193435 -0.258477 -0.946453
			 0.143825 -0.232043 -0.962014
			-0.137770 -0.105463 -0.984833
			 0.147447 -0.174466 -0.973561
			 0.029351 -0.071670 -0.996996
			 0.221084 -0.163387 -0.961471
			-0.903197 -0.126673 -0.410109
			-0.406633 -0.080074 -0.910076
			-0.838177 -0.100655 -0.536029
			-0.133549 -0.055340 -0.989496
			-0.108855 -0.002655 -0.994054
			 0.566835  0.020368 -0.823580
			 0.792336  0.099706 -0.601882
			 0.887524  0.394287 -0.238411
			 0.830546  0.174718  0.528836
			 0.737481  0.078327  0.670810
			 0.598726 -0.119635  0.791969
			 0.177320 -0.074174  0.981354
			-0.401354 -0.286803  0.869861
			-0.121251 -0.317293  0.940544
			 0.048973 -0.214423  0.975513
			 0.394313 -0.164225  0.904183
			-0.603601 -0.200884  0.771564
			-0.694176 -0.179871  0.696969
			-0.524659 -0.281557  0.803405
			-0.464253 -0.274120  0.842216
			-0.469584 -0.297987  0.831080
			-0.975406 -0.200982  0.090496
			-0.982079 -0.158172  0.102484
			-0.908598 -0.228076  0.349901
			-0.980012 -0.189230  0.061386
			-0.492655 -0.204122  0.845946
			-0.549489 -0.113779  0.827718
			-0.876443 -0.142761  0.459856
			-0.695047 -0.135180  0.706141
			 0.949505  0.313733 -0.003447
			 0.753841 -0.061069  0.654212
			 0.784950 -0.086284  0.613522
			 0.965605 -0.026833  0.258625
			 0.995174  0.082694 -0.052818
			 0.352757 -0.169772 -0.920185
			 0.211397 -0.227207 -0.950625
			 0.264504 -0.258543 -0.929082
			 0.183971 -0.229041 -0.955874
			 0.265209 -0.159706 -0.950872
			 0.192501 -0.135407 -0.971909
			 0.182347 -0.076878 -0.980224
			-0.014182 -0.034231 -0.999313
			 0.269679 -0.093270 -0.958423
			 0.239692 -0.048252 -0.969649
			-0.972967 -0.199240 -0.116783
			-0.728486 -0.095294 -0.678401
			-0.979436 -0.189167 -0.070148
			-0.130336 -0.012610 -0.991390
			-0.055132 -0.052919 -0.997076
			-0.131463 -0.035891 -0.990671
			-0.587215 -0.123279 -0.799988
			-0.333181  0.067356 -0.940454
			 0.399114 -0.182787 -0.898497
			 0.663984 -0.072755 -0.744199
			 0.895220  0.005137 -0.445595
			 0.343406 -0.268233  0.900069
			 0.501834 -0.234417  0.832593
			 0.628772 -0.202911  0.750649
			 0.191972 -0.301077  0.934077
			-0.401596 -0.294671  0.867116
			-0.230374 -0.345820  0.909581
			-0.054397 -0.362694  0.930319
			 0.108404 -0.311029  0.944198
			-0.390839 -0.264272  0.881706
			-0.977037 -0.202647  0.065822
			-0.963363 -0.192448  0.186801
			-0.422970 -0.165337  0.890932
			-0.545706 -0.096309  0.832424
			-0.460737 -0.095773  0.882354
			-0.976383 -0.137753  0.166433
			-0.889007 -0.147782  0.433389
			-0.595153 -0.115817  0.795223
			-0.807437 -0.145851  0.571640
			 0.652644 -0.202433  0.730121
			 0.888546 -0.201457  0.412191
			 0.986768 -0.077008 -0.142685
			 0.976183 -0.211175 -0.049713
			 0.901720 -0.116741 -0.416260
			 0.247600 -0.174777 -0.952968
			 0.430731 -0.187925 -0.882697
			 0.681465 -0.197418 -0.704721
			 0.677113 -0.200226 -0.708115
			 0.162015 -0.042952 -0.985853
			 0.021532 -0.067930 -0.997458
			 0.204285 -0.072229 -0.976243
			 0.797300 -0.211805 -0.565200
			 0.666127 -0.100193 -0.739078
			 0.158517 -0.020947 -0.987134
			 0.268320 -0.030258 -0.962855
			-0.901154 -0.173057 -0.397457
			-0.955448 -0.149661 -0.254402
			-0.195148 -0.008416 -0.980738
			-0.010857 -0.011216 -0.999878
			-0.043039 -0.076951 -0.996105
			-0.058486 -0.129111 -0.989904
			-0.292370 -0.131794 -0.947180
			-0.135790  0.012135 -0.990663
			-0.149630 -0.049819 -0.987486
			-0.747685 -0.172194 -0.641340
			-0.894645 -0.137272 -0.425166
			 0.682758 -0.140517 -0.717005
			 0.352827 -0.231185  0.906679
			 0.236717 -0.263542  0.935153
			 0.575283 -0.214423  0.789349
			-0.148730 -0.324406  0.934152
			 0.005518 -0.322191  0.946659
			 0.094886 -0.247716  0.964175
			-0.184676 -0.178627  0.966430
			-0.281365 -0.109065  0.953383
			-0.460415 -0.092682  0.882852
			-0.994138 -0.107596 -0.010582
			-0.953534 -0.123409  0.274853
			-0.419770 -0.107709  0.901217
			-0.510675 -0.120575  0.851277
			-0.691099 -0.133515  0.710321
			-0.865841 -0.132555  0.482439
			 0.633505 -0.210000  0.744696
			 0.800783 -0.234342  0.551208
			 0.960301 -0.239696  0.142716
			 0.934072 -0.183779 -0.306162
			 0.956858 -0.251736 -0.145095
			 0.877513 -0.226856 -0.422503
			 0.864654 -0.230370 -0.446435
			 0.896034 -0.172801 -0.408978
			 0.057144 -0.030416 -0.997903
			 0.261110 -0.123963 -0.957316
			 0.968064 -0.236931 -0.081951
			 0.780760 -0.162648 -0.603290
			 0.278759 -0.019085 -0.960172
			 0.196565  0.006552 -0.980469
			 0.378048 -0.016538 -0.925638
			 0.189603 -0.011912 -0.981788
			-0.418288 -0.073739 -0.905316
			 0.211462  0.023238 -0.977110
			-0.235197  0.058338 -0.970195
			 0.031424  0.088654 -0.995567
			-0.790995 -0.005508 -0.611798
			-0.986829 -0.114822  0.113950
			-0.994281 -0.066656 -0.083438
			 0.586363 -0.182515  0.789219
			 0.349858 -0.179341  0.919476
			 0.641902 -0.166545  0.748482
			 0.165750 -0.163588  0.972505
			-0.031791 -0.117228  0.992596
			-0.121519 -0.130009  0.984038
			-0.235954 -0.096877  0.966923
			-0.078029 -0.136368  0.987580
			-0.309650 -0.130345  0.941874
			-0.289185 -0.151442  0.945218
			-0.705124 -0.134107  0.696287
			-0.501346 -0.137820  0.854200
			-0.342990 -0.136378  0.929386
			-0.589851 -0.118739  0.798735
			-0.885110 -0.124830  0.448328
			 0.930101 -0.275968  0.242391
			 0.954311 -0.247375  0.167617
			 0.520478 -0.164662  0.837848
			 0.818173 -0.250981  0.517303
			 0.932119 -0.269225  0.242224
			 0.280751 -0.070085 -0.957218
			 0.072983 -0.040071 -0.996528
			 0.975629 -0.213151 -0.052098
			 0.908123 -0.252138  0.334273
			 0.646542 -0.159883 -0.745936
			 0.954817 -0.206896 -0.213353
			 0.132074 -0.052786 -0.989833
			 0.310556 -0.005026 -0.950542
			-0.345462  0.080126 -0.935006
			-0.541249 -0.097781 -0.835158
			 0.228115  0.047571 -0.972471
			 0.284433 -0.064911 -0.956496
			 0.305389  0.061127 -0.950264
			 0.284222 -0.031363 -0.958245
			-0.161878  0.104253 -0.981288
			-0.200249  0.142663 -0.969303
			-0.146115  0.170486 -0.974467
			 0.045667  0.155336 -0.986806
			 0.136621  0.118950 -0.983456
			 0.214332  0.164173 -0.962865
			 0.303273  0.127139 -0.944384
			-0.856641 -0.010811 -0.515800
			-0.972198  0.026221  0.232689
			-0.918317 -0.084030  0.386824
			 0.109742 -0.107316  0.988150
			 0.205378 -0.114132  0.972005
			 0.126557 -0.135850  0.982613
			-0.011304 -0.133221  0.991022
			-0.304309 -0.135094  0.942945
			-0.667480 -0.118717  0.735103
			-0.614329 -0.150086  0.774644
			-0.513525 -0.152948  0.844334
			-0.276807 -0.142901  0.950241
			-0.563723 -0.128903  0.815843
			-0.790367 -0.108684  0.602916
			 0.779385 -0.182909  0.599252
			 0.655247 -0.140141  0.742301
			 0.401964 -0.107223  0.909356
			 0.367854 -0.143653 -0.918720
			 0.127397 -0.111398 -0.985576
			 0.955874 -0.218000  0.196927
			 0.882259 -0.210337  0.421161
			 0.818128 -0.155313 -0.553665
			 0.988683 -0.138464  0.057730
			 0.961314 -0.140412  0.236979
			-0.391174  0.206368 -0.896881
			-0.252370  0.163205 -0.953768
			-0.819195  0.206619 -0.535004
			 0.364919  0.091309 -0.926551
			 0.592223 -0.168285 -0.788005
			 0.546736 -0.027533 -0.836852
			 0.394913  0.031511 -0.918178
			-0.186388  0.208107 -0.960183
			 0.151000  0.131996 -0.979682
			 0.190606  0.234440 -0.953261
			-0.044835  0.240410 -0.969635
			 0.084034  0.168849 -0.982053
			 0.142679  0.127925 -0.981467
			 0.099419  0.278840 -0.955178
			 0.257748  0.248927 -0.933596
			 0.328430  0.165919 -0.929841
			 0.372619  0.240794 -0.896199
			 0.372642  0.175098 -0.911306
			 0.567452  0.128643 -0.813295
			-0.951931  0.207132 -0.225665
			-0.969274  0.006129  0.245908
			-0.908408 -0.066684  0.412733
			-0.817300 -0.055204  0.573562
			-0.734831 -0.082679  0.673192
			-0.718727 -0.153086  0.678230
			 0.301735 -0.138901  0.943219
			 0.186688 -0.149241  0.971017
			-0.050222 -0.145435  0.988092
			-0.595516 -0.145487  0.790059
			-0.460453 -0.170605  0.871135
			-0.308283 -0.168099  0.936325
			-0.294720 -0.152992  0.943257
			-0.117453 -0.151676  0.981427
			 0.805185 -0.174793  0.566679
			 0.610043 -0.129279  0.781751
			 0.901276 -0.159003  0.403012
			 0.901597 -0.140202 -0.409226
			 0.985673 -0.099997 -0.135829
			 0.993954 -0.008231 -0.109489
			 0.915094 -0.142620  0.377177
			-0.301248  0.282438 -0.910757
			-0.636118  0.287751 -0.715928
			 0.708972  0.028024 -0.704680
			-0.201899  0.225167 -0.953172
			 0.155152  0.243110 -0.957510
			 0.122392  0.426606 -0.896118
			 0.174017  0.384255 -0.906679
			 0.276752  0.385145 -0.880381
			-0.080801  0.438578 -0.895053
			-0.486351  0.334243 -0.807307
			 0.014823  0.346666 -0.937871
			 0.428489  0.364915 -0.826580
			 0.174061  0.403860 -0.898109
			 0.032732  0.440403 -0.897203
			 0.659117  0.249503 -0.709446
			 0.731758  0.268257 -0.626553
			 0.841482  0.282716 -0.460412
			 0.969550  0.073414 -0.233629
			-0.991862  0.080801  0.098394
			-0.961188  0.186002 -0.203766
			-0.937627  0.147575  0.314764
			-0.800841  0.042516  0.597366
			-0.671801 -0.089797  0.735269
			 0.580793 -0.148024  0.800480
			 0.498838 -0.184353  0.846862
			 0.029298 -0.158195  0.986973
			 0.362279 -0.149605  0.919985
			-0.418252 -0.167311  0.892789
			-0.382641 -0.206781  0.900460
			-0.278322 -0.200524  0.939323
			-0.105772 -0.181818  0.977627
			-0.087149 -0.215114  0.972693
			 0.804517 -0.133619  0.578705
			 0.987354  0.011028  0.158148
			 0.914855 -0.063533  0.398754
			 0.910482 -0.115417  0.397117
			 0.933403 -0.055798  0.354466
			 0.055517  0.543169 -0.837786
			-0.018069  0.495974 -0.868150
			 0.236149  0.352376 -0.905574
			 0.074279  0.260074 -0.962727
			 0.121101  0.410908 -0.903598
			 0.340393  0.154192 -0.927555
			-0.492316  0.441531 -0.750117
			 0.872587  0.294612 -0.389610
			 0.778768  0.337098 -0.529042
			 0.727879  0.367383 -0.578984
			 0.367430  0.416112 -0.831773
			 0.193070  0.480632 -0.855405
			 0.167899  0.467106 -0.868114
			-0.054195  0.223939 -0.973095
			 0.954452  0.166643 -0.247493
			 0.985961  0.110334  0.125327
			 0.934383 -0.035881  0.354458
			-0.952289  0.262513 -0.155666
			-0.943172  0.202489  0.263485
			-0.787219  0.147801  0.598700
			-0.556421  0.072767  0.827708
			-0.532796 -0.017696  0.846059
			 0.806330 -0.138079  0.575123
			 0.729717 -0.154028  0.666175
			 0.092097 -0.168933  0.981315
			 0.699629 -0.120350  0.704298
			 0.365537 -0.167471  0.915607
			-0.221872 -0.116742  0.968062
			-0.182099 -0.235167  0.954744
			-0.192750 -0.249607  0.948970
			-0.003898 -0.179768  0.983701
			-0.080037 -0.262769  0.961533
			 0.084903 -0.211461  0.973692
			 0.806252 -0.128445  0.577460
			-0.494241  0.378631 -0.782537
			 0.148358 -0.112118 -0.982558
			-0.064481 -0.080512 -0.994666
			-0.249017  0.122565 -0.960713
			 0.302497  0.114332 -0.946268
			 0.361918 -0.157472 -0.918813
			 0.301584 -0.130559 -0.944458
			-0.698861  0.377956 -0.607242
			-0.782432  0.413311 -0.465804
			 0.969362  0.074118  0.234186
			 0.972558  0.179372 -0.148175
			 0.487169  0.476909 -0.731590
			 0.903006  0.184401 -0.388041
			 0.197981  0.145469 -0.969351
			 0.515496  0.351008 -0.781702
			-0.054108 -0.141917 -0.988399
			 0.802873  0.028967  0.595446
			 0.882443  0.113562  0.456507
			 0.763572 -0.109500  0.636370
			 0.749778 -0.105708  0.653191
			-0.950446  0.040258  0.308272
			-0.991865  0.072751 -0.104456
			-0.990753 -0.090804  0.100810
			-0.879082  0.166128 -0.446784
			-0.700411 -0.035295  0.712867
			-0.285119 -0.086645  0.954568
			 0.592350 -0.174485  0.786560
			 0.231046 -0.204036  0.951308
			 0.349872 -0.217116  0.911290
			 0.556822 -0.177824  0.811374
			-0.055763 -0.169626  0.983930
			-0.131497 -0.220691  0.966439
			-0.047874 -0.216978  0.975002
			 0.145211 -0.232978  0.961580
			-0.763332 -0.135636 -0.631607
			-0.897224  0.033436 -0.440307
			-0.053073 -0.429103 -0.901695
			 0.161718 -0.426879 -0.889731
			 0.250297 -0.298521 -0.920998
			-0.052398 -0.308374 -0.949821
			 0.181512 -0.128026 -0.975019
			-0.567148 -0.264444 -0.780008
			 0.155386 -0.414331 -0.896764
			 0.919067 -0.073373  0.387211
			 0.977910 -0.068771  0.197389
			 0.917873  0.037197  0.395127
			 0.865060 -0.001830  0.501666
			 0.949340 -0.087139  0.301928
			 0.985953 -0.129354  0.105666
			 0.756326 -0.281799 -0.590390
			 0.467569  0.010946 -0.883889
			 0.158151 -0.342939 -0.925949
			-0.021179 -0.481328 -0.876285
			 0.601105 -0.070563  0.796049
			 0.529525  0.084181  0.844107
			 0.643848  0.090278  0.759809
			 0.461965 -0.165131  0.871390
			-0.924410 -0.176997  0.337843
			-0.977305 -0.083701 -0.194601
			-0.971098 -0.237226  0.026327
			-0.945084 -0.275054  0.176527
			-0.546308 -0.227112  0.806205
			-0.839902 -0.282573  0.463375
			-0.130123 -0.251838  0.958981
			-0.076270 -0.338585  0.937840
			-0.131146 -0.194348  0.972126
			-0.120494 -0.181714  0.975941
			-0.113914 -0.120247  0.986187
			 0.118403 -0.191702  0.974285
			 0.062371 -0.089964  0.993990
			 0.306672 -0.083369  0.948157
			-0.952628 -0.180835 -0.244538
			-0.463449 -0.484910 -0.741672
			-0.898945 -0.348866 -0.264933
			-0.100557 -0.715420 -0.691421
			-0.050769 -0.655487 -0.753498
			 0.150632 -0.700624 -0.697450
			 0.265207 -0.662851 -0.700210
			 0.193391 -0.539026 -0.819787
			-0.866806 -0.307239 -0.392748
			-0.772632 -0.470299 -0.426448
			-0.045941 -0.678446 -0.733213
			 0.895304 -0.145142  0.421146
			 0.768974 -0.206137  0.605133
			 0.642806 -0.043565  0.764789
			 0.897568 -0.291419  0.330829
			 0.874509 -0.472278  0.110402
			 0.693094 -0.576182 -0.433169
			 0.301790 -0.585908 -0.752087
			 0.241213 -0.761103 -0.602112
			 0.324790  0.043244  0.944797
			-0.920536 -0.347072  0.179315
			-0.905416 -0.424420  0.009483
			-0.876395 -0.335252  0.345741
			-0.489195 -0.401558  0.774235
			-0.068536 -0.450409  0.890188
			-0.151507 -0.327670  0.932565
			-0.182509 -0.144023  0.972599
			-0.040454 -0.112654  0.992810
			-0.029997 -0.915646 -0.400864
			 0.091453 -0.939766 -0.329357
			-0.139817 -0.941097 -0.307876
			 0.207715 -0.644462 -0.735883
			 0.179437 -0.863101 -0.472079
			 0.276295 -0.735402 -0.618744
			-0.571664 -0.783394 -0.243914
			 0.043469 -0.873871 -0.484211
			 0.827617 -0.207096  0.521690
			 0.420524 -0.197009  0.885633
			 0.489830 -0.838132  0.240002
			 0.609535 -0.787159 -0.094067
			 0.889184 -0.248655  0.384086
			 0.607481 -0.735472 -0.300078
			-0.690057 -0.540710  0.481096
			-0.688477 -0.688231  0.228775
			-0.195009 -0.586721  0.785958
			-0.149507 -0.735371  0.660967
			-0.153122 -0.441216  0.884241
			-0.209182 -0.294999  0.932319
			 0.092669 -0.207745  0.973784
			-0.069098 -0.345748  0.935780
			-0.305270 -0.942609  0.135270
			-0.001167 -0.862006  0.506896
			-0.255698 -0.920100  0.296706
			-0.071184 -0.995885  0.056089
			 0.000000  0.000000  1.000000
			-0.107133 -0.991545  0.073222
			 0.632151 -0.232653  0.739093
			 0.416194 -0.279110  0.865379
			 0.636773 -0.429625  0.640267
			-0.026105 -0.908615  0.416818
			 0.105374 -0.668230  0.736454
			-0.194409 -0.838915  0.508357
			-0.204291 -0.604558  0.769919
			-0.191086 -0.848565  0.493380
		</DataArray>
	</PointData>
	<Points>
		<DataArray type="Float32" NumberOfComponents="3" format="ascii">
			-0.001540 -0.003010 -0.001647
			-0.002245 -0.003725 -0.000822
			-0.001414 -0.003479 -0.000877
			-0.002171 -0.003234 -0.001676
			-0.002108 -0.003405 -0.002809
			-0.001181 -0.002946 -0.002108
			-0.002489 -0.003182 -0.002427
			-0.000677 -0.002870 -0.001508
			-0.001024 -0.003762  0.000324
			-0.002781 -0.003932 -0.000148
			-0.002872 -0.003750 -0.000754
			-0.003175 -0.003411 -0.001310
			-0.000726 -0.003552 -0.000537
			-0.003840 -0.003461 -0.002318
			-0.003129 -0.003438 -0.002518
			-0.003654 -0.003299 -0.001667
			-0.000815 -0.003288 -0.002635
			-0.001704 -0.003619 -0.003018
			-0.002150 -0.004187 -0.003338
			-0.002825 -0.004195 -0.003198
			-0.000553 -0.002981 -0.002186
			 0.000134 -0.003067 -0.001848
			-0.000366 -0.003827  0.000453
			-0.000675 -0.003365  0.001424
			-0.001800 -0.003832  0.000831
			-0.001527 -0.003576  0.001352
			-0.002902 -0.003916  0.000513
			-0.002421 -0.003891  0.000932
			-0.004338 -0.003649 -0.000571
			 0.000406 -0.003320 -0.001489
			 0.000956 -0.004049 -0.000810
			 0.000174 -0.003864 -0.000260
			-0.003373 -0.003797 -0.002856
			-0.004542 -0.003675 -0.002057
			-0.004181 -0.003844 -0.002567
			 0.000001 -0.003798 -0.003027
			-0.001094 -0.003787 -0.003270
			-0.002554 -0.004633 -0.003325
			-0.001719 -0.004640 -0.003432
			-0.003579 -0.004657 -0.003067
			 0.000264 -0.003532 -0.002583
			 0.001189 -0.003609 -0.002056
			 0.000819 -0.004355  0.000447
			 0.000325 -0.004075  0.000764
			-0.000830 -0.003116  0.001912
			-0.000172 -0.003268  0.002028
			 0.000622 -0.004102  0.001371
			-0.002521 -0.003716  0.001793
			-0.001871 -0.003400  0.001985
			-0.003502 -0.003807  0.000815
			-0.003206 -0.003792  0.001428
			-0.004971 -0.004101 -0.001432
			-0.004747 -0.004131 -0.000602
			-0.004457 -0.003774  0.000068
			-0.005069 -0.004805 -0.000459
			-0.004828 -0.004717  0.000173
			 0.001070 -0.003677 -0.001408
			 0.001738 -0.004525  0.000100
			 0.001763 -0.004064 -0.001120
			-0.004875 -0.004385 -0.002135
			-0.004568 -0.004748 -0.002561
			-0.000036 -0.004248 -0.003431
			-0.000885 -0.004644 -0.003546
			-0.002301 -0.005566 -0.003307
			-0.003095 -0.005959 -0.003023
			-0.001590 -0.006611 -0.003086
			-0.001480 -0.005121 -0.003381
			-0.003962 -0.005143 -0.002906
			 0.000898 -0.003892 -0.002714
			 0.002061 -0.003889 -0.001986
			 0.001582 -0.003837 -0.002353
			 0.001158 -0.004465  0.000821
			-0.000708 -0.003428  0.002708
			-0.001365 -0.003392  0.002574
			 0.000464 -0.003690  0.001886
			-0.000643 -0.003765  0.003076
			 0.000944 -0.003878  0.002231
			 0.000585 -0.003903  0.002699
			 0.001282 -0.004289  0.001481
			 0.001651 -0.004293  0.001868
			-0.003992 -0.003864  0.001076
			-0.002223 -0.003779  0.002394
			-0.002752 -0.004247  0.002379
			-0.005152 -0.004594 -0.001276
			-0.004366 -0.003885  0.000685
			-0.005258 -0.005139 -0.000922
			-0.005203 -0.005351 -0.000102
			-0.004948 -0.005513  0.000488
			 0.002274 -0.004334 -0.000576
			 0.002036 -0.004570  0.000704
			 0.002512 -0.004079 -0.001853
			-0.004739 -0.005238 -0.002410
			-0.005056 -0.005839 -0.001810
			 0.001082 -0.004385 -0.003067
			 0.000254 -0.004721 -0.003420
			-0.000182 -0.005636 -0.003366
			-0.000435 -0.005130 -0.003511
			-0.001028 -0.005608 -0.003336
			-0.000507 -0.007052 -0.003066
			-0.000750 -0.006585 -0.003153
			-0.001321 -0.007531 -0.002954
			-0.002214 -0.006798 -0.003045
			-0.003728 -0.005621 -0.002896
			-0.004080 -0.006579 -0.002657
			-0.003187 -0.007504 -0.002617
			-0.004197 -0.007812 -0.002337
			-0.001394 -0.006125 -0.003058
			-0.004448 -0.005659 -0.002605
			 0.001962 -0.004470 -0.002873
			 0.002905 -0.004354 -0.002158
			 0.002640 -0.004487 -0.002579
			 0.002569 -0.004478  0.001518
			-0.001473 -0.004035  0.003140
			 0.000019 -0.004060  0.003168
			-0.000988 -0.004546  0.003420
			 0.001852 -0.004573  0.002445
			 0.001068 -0.004540  0.002929
			-0.004271 -0.004304  0.001252
			-0.003317 -0.004326  0.002000
			-0.003999 -0.004523  0.001616
			-0.002429 -0.004356  0.002754
			-0.002455 -0.004850  0.002893
			-0.003724 -0.005010  0.001922
			-0.003007 -0.005175  0.002452
			-0.005197 -0.005474 -0.001414
			-0.005305 -0.005705 -0.000499
			-0.005215 -0.005844  0.000034
			-0.005292 -0.006073 -0.000855
			-0.004673 -0.006084  0.000886
			-0.005124 -0.006779  0.000087
			-0.004805 -0.006941  0.000670
			 0.003143 -0.004516 -0.000490
			 0.002992 -0.004278 -0.001510
			 0.003022 -0.004535  0.000167
			-0.004628 -0.006644 -0.002314
			-0.004998 -0.006792 -0.001678
			-0.004806 -0.007192 -0.001943
			 0.002177 -0.004910 -0.002986
			 0.001311 -0.005167 -0.003183
			 0.000719 -0.006184 -0.003156
			 0.000096 -0.006613 -0.003181
			-0.000678 -0.007565 -0.002923
			-0.001677 -0.008412 -0.002722
			-0.000183 -0.008559 -0.002709
			-0.003943 -0.008675 -0.002291
			-0.002057 -0.008895 -0.002542
			-0.004597 -0.007618 -0.002100
			 0.002859 -0.005014 -0.002685
			 0.003535 -0.005178 -0.002148
			 0.003385 -0.004528 -0.001810
			 0.003356 -0.004929  0.000925
			 0.002452 -0.004719  0.002138
			 0.002845 -0.004906  0.001847
			-0.001871 -0.004493  0.003197
			 0.000076 -0.004625  0.003411
			 0.000385 -0.005091  0.003390
			-0.001157 -0.005502  0.003445
			-0.000531 -0.005021  0.003505
			-0.001616 -0.004999  0.003346
			 0.002102 -0.005221  0.002527
			 0.001316 -0.005039  0.003039
			-0.004193 -0.005769  0.001374
			-0.003950 -0.005404  0.001708
			-0.002489 -0.005732  0.002753
			-0.002061 -0.005375  0.003091
			-0.005250 -0.006566 -0.000724
			-0.005021 -0.007274  0.000211
			-0.004603 -0.008708  0.000361
			-0.003930 -0.008250  0.001004
			 0.003810 -0.005092 -0.000444
			 0.003715 -0.004718 -0.001018
			 0.003976 -0.006160  0.000439
			 0.004080 -0.005697 -0.000206
			-0.005108 -0.007211 -0.001060
			-0.004913 -0.008013 -0.001427
			 0.001767 -0.005662 -0.003100
			 0.002412 -0.005383 -0.002963
			 0.000812 -0.007352 -0.002835
			 0.000304 -0.008125 -0.002687
			-0.001593 -0.009791 -0.002525
			 0.001605 -0.009205 -0.002259
			-0.000938 -0.010400 -0.002573
			 0.000312 -0.009458 -0.002474
			-0.004835 -0.008670 -0.001543
			-0.004098 -0.009898 -0.002241
			-0.004475 -0.009966 -0.001917
			-0.001758 -0.010577 -0.002419
			-0.003221 -0.010613 -0.002257
			 0.003139 -0.005510 -0.002587
			 0.003740 -0.005673 -0.002037
			 0.003826 -0.004899 -0.001491
			 0.003491 -0.005529  0.001027
			 0.002935 -0.005735  0.001918
			 0.002329 -0.006272  0.002318
			 0.000122 -0.005558  0.003463
			-0.001377 -0.006101  0.003212
			-0.000712 -0.006553  0.003278
			-0.000288 -0.005996  0.003444
			 0.001357 -0.005962  0.003057
			-0.003543 -0.005950  0.001978
			-0.003945 -0.006267  0.001489
			-0.002755 -0.006104  0.002458
			-0.002532 -0.006984  0.002278
			-0.001848 -0.006443  0.002780
			-0.004858 -0.008106 -0.000158
			-0.004877 -0.008439 -0.000640
			-0.004500 -0.009924 -0.000278
			-0.004808 -0.008909 -0.000939
			-0.002949 -0.007771  0.001830
			-0.003405 -0.010323  0.001107
			-0.004084 -0.010581  0.000428
			-0.003738 -0.010691  0.000802
			 0.004161 -0.005554 -0.000775
			 0.003459 -0.006492  0.001206
			 0.003836 -0.006850  0.000755
			 0.004163 -0.006696  0.000094
			 0.004253 -0.006061 -0.000603
			 0.002672 -0.005902 -0.002774
			 0.001528 -0.007255 -0.002686
			 0.002255 -0.006253 -0.002821
			 0.001278 -0.007716 -0.002645
			 0.002627 -0.008321 -0.002282
			 0.000799 -0.010063 -0.002197
			 0.002059 -0.009699 -0.002191
			-0.000892 -0.011330 -0.002527
			 0.000149 -0.010401 -0.002393
			-0.000256 -0.011086 -0.002457
			-0.004658 -0.009585 -0.001584
			-0.004286 -0.010879 -0.001964
			-0.004348 -0.011170 -0.001358
			-0.001482 -0.012245 -0.002451
			-0.003117 -0.013146 -0.002259
			-0.002265 -0.013180 -0.002256
			-0.003791 -0.012132 -0.002223
			-0.003880 -0.011272 -0.002289