<?xml version="1.0"?>
<VTKFile type="PolyData" version="0.1" byte_order="LittleEndian" compressor="vtkZLibDataCompressor">
	<PolyData>
		<Piece NumberOfPoints="2007" NumberOfVerts="0" NumberOfLines="0" NumberOfStrips="0" NumberOfPolys="4042">
		<PointData Normals="Normals">
		<DataArray type="Float32" Name="Normals" NumberOfComponents="3" format="ascii">
			-0.478368  0.042009 -0.877154
			-0.491748  0.082236 -0.866845
			-0.630044  0.072149 -0.773200
			-0.655826  0.033777 -0.754156
			-0.290490  0.054635 -0.955317
			-0.535270  0.035284 -0.843944
			-0.396003  0.028018 -0.917822
			-0.434764  0.081482 -0.896851
			-0.769847  0.058588 -0.635534
			-0.801417  0.057778 -0.595309
			-0.646742  0.075855 -0.758927
			-0.784311  0.053724 -0.618038
			-0.770236  0.024986 -0.637269
			-0.809886  0.047394 -0.584669
			-0.478791  0.015114 -0.877799
			-0.552458 -0.005049 -0.833526
			-0.124687  0.082683 -0.988745
			-0.226983  0.013257 -0.973808
			 0.132923  0.073941 -0.988364
			-0.446432  0.075560 -0.891622
			-0.111493  0.093563 -0.989351
			-0.324655  0.101709 -0.940348
			-0.832714  0.077962 -0.548187
			-0.872539  0.069896 -0.483518
			-0.879868  0.038117 -0.473687
			-0.787129  0.053717 -0.614445
			-0.696076  0.019873 -0.717693
			-0.900933  0.054190 -0.430562
			-0.913392  0.043153 -0.404787
			-0.579685  0.050987 -0.813244
			-0.879442  0.045250 -0.473851
			-0.878689  0.073796 -0.471656
			-0.892217  0.034782 -0.450265
			-0.768743  0.006391 -0.639526
			-0.251420 -0.015747 -0.967750
			-0.650341 -0.012427 -0.759540
			 0.233389  0.080425 -0.969052
			 0.157958  0.038473 -0.986696
			 0.149770  0.010603 -0.988664
			 0.361446  0.033534 -0.931790
			 0.467533  0.065618 -0.881537
			-0.392023  0.102331 -0.914246
			-0.178886  0.094601 -0.979311
			 0.270373  0.082014 -0.959256
			 0.246410  0.096312 -0.964368
			-0.956362  0.093826 -0.276709
			-0.932518  0.083102 -0.351433
			-0.882513  0.077460 -0.463864
			-0.933572  0.049646 -0.354934
			-0.854447  0.083288 -0.512819
			-0.757087  0.109611 -0.644054
			-0.830570  0.084373 -0.550486
			-0.962197  0.078505 -0.260793
			-0.976548  0.057398 -0.207509
			-0.570672  0.114371 -0.813175
			-0.365567  0.132432 -0.921315
			-0.910149  0.045360 -0.411791
			-0.922674  0.072974 -0.378613
			-0.831372  0.004358 -0.555698
			-0.803095  0.016940 -0.595610
			-0.948555  0.066622 -0.309525
			-0.922463  0.010387 -0.385945
			-0.949722  0.041825 -0.310289
			-0.436525 -0.043792 -0.898626
			-0.330624 -0.027536 -0.943361
			 0.132141 -0.003415 -0.991225
			 0.136728 -0.036172 -0.989948
			-0.029873 -0.040592 -0.998729
			-0.740781 -0.012279 -0.671634
			-0.784731 -0.000237 -0.619836
			-0.540709 -0.019343 -0.840988
			 0.511268  0.071828 -0.856414
			 0.503448  0.076079 -0.860670
			 0.426106  0.023338 -0.904372
			 0.372386 -0.018093 -0.927902
			 0.468210 -0.029716 -0.883117
			 0.407825 -0.000998 -0.913060
			 0.473405 -0.023405 -0.880534
			 0.534742  0.013209 -0.844912
			 0.585262  0.031534 -0.810231
			 0.617448  0.054714 -0.784706
			-0.182485  0.126458 -0.975042
			 0.154640  0.163542 -0.974341
			 0.553929  0.098720 -0.826690
			 0.454495  0.130858 -0.881085
			-0.972430  0.058099 -0.225842
			-0.993781  0.081879 -0.075464
			-0.997675  0.065010  0.020435
			-0.957780  0.080220 -0.276083
			-0.910541  0.083656 -0.404865
			-0.977692  0.064825 -0.199788
			-0.865310  0.085341 -0.493918
			-0.760524  0.139905 -0.634058
			-0.829149  0.106495 -0.548790
			-0.640722  0.154908 -0.751983
			-0.867478  0.098006 -0.487727
			-0.994070  0.082233 -0.071157
			-0.998795  0.041623  0.025983
			-0.995591  0.052317  0.077852
			-0.509699  0.162642 -0.844840
			-0.175529  0.150241 -0.972943
			 0.037141  0.098994 -0.994395
			-0.017063  0.160075 -0.986957
			-0.945718  0.079024 -0.315234
			-0.859545  0.012880 -0.510898
			-0.980179  0.083649 -0.179590
			-0.986511  0.071245 -0.147378
			-0.972363  0.053256 -0.227318
			-0.997754  0.066984  0.000337
			-0.933751  0.005432 -0.357883
			-0.986160  0.051001 -0.157758
			-0.477591 -0.039261 -0.877705
			-0.278510  0.011454 -0.960365
			 0.396251 -0.031265 -0.917610
			 0.092274 -0.031181 -0.995245
			 0.359747 -0.045180 -0.931956
			 0.240254 -0.051058 -0.969366
			-0.047580 -0.041402 -0.998009
			 0.164313 -0.083277 -0.982887
			-0.732357 -0.009088 -0.680860
			-0.829939  0.029762 -0.557060
			-0.588683 -0.035003 -0.807606
			 0.648956  0.050314 -0.759161
			 0.615983  0.067070 -0.784899
			 0.687879  0.050102 -0.724094
			 0.683728 -0.026497 -0.729255
			 0.576912 -0.027616 -0.816340
			 0.674065 -0.026794 -0.738186
			 0.623638 -0.012887 -0.781607
			 0.638592 -0.057558 -0.767390
			 0.657656 -0.009383 -0.753260
			 0.743568  0.034406 -0.667775
			 0.653408  0.047352 -0.755523
			 0.770385  0.030386 -0.636855
			 0.349319  0.125931 -0.928503
			 0.634764  0.121270 -0.763131
			 0.680658  0.110500 -0.724220
			 0.523293  0.105536 -0.845592
			-0.989308  0.062450 -0.131792
			-0.968279  0.047321  0.245348
			-0.877890  0.050792  0.476161
			-0.943592  0.048725  0.327507
			-0.988447  0.064205  0.137295
			-0.992358  0.091359 -0.082943
			-0.949961  0.082583 -0.301254
			-0.998303  0.048724 -0.031900
			-0.996798  0.041466  0.068368
			-0.854874  0.108776 -0.507305
			-0.827639  0.139502 -0.543648
			-0.736307  0.159374 -0.657611
			-0.613160  0.177534 -0.769751
			-0.939410  0.116295 -0.322467
			-0.938577  0.094252 -0.331949
			-0.985664  0.034467  0.165165
			-0.938186  0.015959  0.345763
			-0.500861  0.192041 -0.843954
			-0.206722  0.225097 -0.952154
			 0.332121  0.114334 -0.936282
			 0.257760  0.214753 -0.942041
			 0.225347  0.126164 -0.966075
			-0.997782  0.062451  0.023033
			-0.993005  0.080090  0.086760
			-0.950951  0.074049  0.300348
			-0.994739  0.092980  0.043007
			-0.989846  0.098873 -0.102127
			-0.882311  0.059575  0.466881
			-0.917934  0.074776  0.389622
			-0.987177 -0.024028 -0.157811
			-0.896936 -0.035989 -0.440692
			-0.821365 -0.048535 -0.568334
			-0.998868  0.013391 -0.045644
			-0.614402 -0.057632 -0.786886
			-0.361267 -0.074275 -0.929500
			 0.549174 -0.048837 -0.834280
			 0.461268 -0.116869 -0.879530
			-0.139120 -0.121418 -0.982804
			 0.259327 -0.120405 -0.958255
			 0.221889 -0.125337 -0.966983
			-0.672459 -0.045220 -0.738751
			 0.820544  0.055669 -0.568866
			 0.795954  0.020409 -0.605013
			 0.783587  0.050903 -0.619193
			 0.789895  0.085015 -0.607321
			 0.772747 -0.003508 -0.634704
			 0.786602 -0.005123 -0.617439
			 0.901360  0.019243 -0.432643
			 0.742238 -0.026309 -0.669620
			 0.865378 -0.020424 -0.500703
			 0.913180  0.029582 -0.406482
			 0.956818  0.022006 -0.289854
			 0.662257  0.122369 -0.739217
			 0.748670  0.128300 -0.650409
			 0.754637  0.107130 -0.647337
			 0.736474  0.131084 -0.663644
			 0.620954  0.136196 -0.771924
			 0.506298  0.144712 -0.850130
			-0.725201 -0.069905  0.684979
			-0.924173  0.065753  0.376271
			-0.545565 -0.111689  0.830593
			-0.767244  0.025398  0.640852
			-0.718800  0.010503  0.695138
			-0.865145  0.028709  0.500699
			-0.864293  0.086020  0.495578
			-0.984902  0.057108 -0.163420
			-0.980265  0.048270  0.191703
			-0.923847  0.043464  0.380286
			-0.885756  0.109856 -0.450963
			-0.952069  0.101235 -0.288646
			-0.841416  0.137130 -0.522699
			-0.792210  0.130393 -0.596155
			-0.720579  0.153609 -0.676144
			-0.588578  0.186625 -0.786605
			-0.976073  0.091311 -0.197343
			-0.832480  0.025736  0.553457
			-0.795338  0.009866  0.606085
			-0.455178  0.211853 -0.864830
			-0.314694  0.218592 -0.923680
			 0.171142  0.278930 -0.944938
			 0.567831  0.237073 -0.788266
			-0.981820  0.101667  0.160294
			-0.838700  0.057276  0.541573
			-0.935191  0.079656  0.345069
			-0.735700  0.053103  0.675222
			-0.663960  0.019367  0.747517
			-0.708767  0.030701  0.704775
			-0.743176  0.060242  0.666379
			-0.803382  0.114042  0.584442
			-0.967016 -0.049107 -0.249937
			-0.999760  0.002683  0.021755
			-0.982699 -0.037706 -0.181333
			-0.998781 -0.042710  0.024761
			-0.735676 -0.043971 -0.675905
			-0.756034 -0.043110 -0.653111
			-0.883538 -0.081122 -0.461281
			-0.730836 -0.060568 -0.679861
			-0.971965  0.063661  0.226341
			-0.991421  0.028080  0.127655
			-0.412133 -0.135926 -0.900927
			-0.107332 -0.115915 -0.987443
			 0.737503 -0.065574 -0.672153
			 0.696991 -0.124271 -0.706230
			 0.434747 -0.161217 -0.886005
			 0.568211 -0.177364 -0.803541
			 0.401381 -0.102982 -0.910103
			 0.069004 -0.168444 -0.983293
			-0.102878 -0.134477 -0.985562
			 0.235715 -0.189312 -0.953205
			 0.926033  0.023011 -0.376740
			 0.970674  0.054839 -0.234062
			 0.960674  0.059609 -0.271207
			 0.902234  0.052975 -0.427981
			 0.936278  0.025517 -0.350332
			 0.957621  0.107035 -0.267406
			 0.951947  0.009877 -0.306102
			 0.990257  0.045985 -0.131439
			 0.992864  0.005239 -0.119141
			 0.924240 -0.035727 -0.380138
			 0.980424 -0.002482 -0.196882
			 0.995928  0.042289 -0.079615
			 0.998903  0.046578  0.004895
			 0.741214  0.133094 -0.657942
			 0.784500  0.100020 -0.612010
			 0.821055  0.103692 -0.561353
			 0.870135  0.102496 -0.482036
			 0.948647  0.160977 -0.272314
			 0.737168  0.170897 -0.653741
			-0.624675  0.004725  0.780871
			-0.485966 -0.070666  0.871116
			-0.745152  0.038126  0.665803
			-0.726824  0.039026  0.685714
			-0.436916 -0.016621  0.899349
			-0.498723  0.012423  0.866672
			-0.560127  0.021748  0.828121
			-0.801036  0.067095  0.594844
			-0.982511  0.092862 -0.161397
			-0.804887 -0.004517  0.593411
			-0.799585  0.070804  0.596365
			-0.940273  0.065222  0.334114
			-0.990186  0.109470 -0.086885
			-0.648199  0.024902  0.761064
			-0.937805  0.124760 -0.323971
			-0.955708  0.079711 -0.283316
			-0.896443  0.134611 -0.422221
			-0.795659  0.172819 -0.580569
			-0.851361  0.187236 -0.490028
			-0.884095  0.141106 -0.445495
			-0.714608  0.210388 -0.667138
			-0.524825  0.235894 -0.817871
			-0.604494  0.215626 -0.766872
			-0.719470  0.027431  0.693982
			-0.679804  0.032975  0.732652
			-0.069157  0.271848 -0.959852
			-0.275886  0.208359 -0.938336
			-0.399898  0.230884 -0.887003
			 0.329094  0.285322 -0.900160
			 0.328714  0.288509 -0.899283
			 0.511576  0.262506 -0.818157
			 0.733316  0.199828 -0.649859
			 0.647498  0.281173 -0.708300
			-0.685329  0.047729  0.726668
			-0.854691  0.087384  0.511730
			-0.496136  0.017096  0.868077
			-0.587962  0.012064  0.808798
			-0.491023 -0.009638  0.871093
			-0.587419  0.024256  0.808919
			-0.549047  0.012716  0.835695
			-0.996117  0.043598  0.076484
			-0.983275  0.008344  0.181934
			-0.963754 -0.093064 -0.250037
			-0.978216  0.012032  0.207241
			-0.984316 -0.000064  0.176414
			-0.989390 -0.083028  0.119225
			-0.983773 -0.116987 -0.136035
			-0.967563 -0.107933 -0.228413
			-0.723133 -0.105238 -0.682645
			-0.861620 -0.117615 -0.493738
			-0.781500 -0.098144 -0.616137
			-0.890971  0.084359  0.446154
			-0.985558  0.070084  0.154154
			-0.708128 -0.123198 -0.695253
			-0.518157 -0.130640 -0.845249
			-0.289110 -0.204387 -0.935223
			 0.838435 -0.028858 -0.544237
			 0.744662 -0.196728 -0.637791
			 0.894092 -0.122017 -0.430943
			 0.768647 -0.192281 -0.610090
			 0.921041 -0.064499 -0.384088
			 0.603571 -0.230866 -0.763154
			 0.417177 -0.279196 -0.864877
			 0.129771 -0.145418 -0.980823
			 0.001123 -0.200700 -0.979652
			 0.250363 -0.272254 -0.929084
			 0.164886 -0.156426 -0.973829
			 0.132740 -0.228381 -0.964480
			 0.995534  0.025852 -0.090797
			 0.994342  0.043416 -0.096951
			 0.998585  0.046430  0.025939
			 0.982755  0.056800 -0.175974
			 0.990279  0.109209 -0.086147
			 0.989920  0.085424 -0.112964
			 0.999893  0.009808  0.010871
			 0.993351  0.026255  0.112090
			 0.978846  0.033743  0.201797
			 0.997443 -0.002573  0.071424
			 0.998673 -0.006566 -0.051073
			 0.996720 -0.014126  0.079689
			 0.957276  0.039258  0.286497
			 0.800468  0.115596 -0.588123
			 0.882211  0.100830 -0.459933
			 0.952280  0.096968 -0.289414
			 0.919588  0.104889 -0.378625
			 0.813188  0.144259 -0.563839
			 0.893515  0.127162 -0.430653
			-0.416092 -0.022815  0.909036
			-0.488797  0.005117  0.872382
			-0.561221  0.006900  0.827637
			-0.486937 -0.003195  0.873431
			-0.247421 -0.032988  0.968346
			-0.269284 -0.011339  0.962994
			-0.434427  0.004021  0.900698
			-0.741542  0.037434  0.669862
			-0.892056  0.071453  0.446240
			-0.864141  0.108910  0.491324
			-0.992481  0.109845  0.053995
			-0.936961  0.125211  0.326231
			-0.989138  0.126089 -0.075554
			-0.975868  0.126479 -0.178002
			-0.401183 -0.007360  0.915968
			-0.431887 -0.025870  0.901556
			-0.538076  0.015544  0.842753
			-0.528033  0.016444  0.849064
			-0.980675  0.122753 -0.152342
			-0.908042  0.130108 -0.398160
			-0.927176  0.113555 -0.357000
			-0.874829  0.237525 -0.422204
			-0.894587  0.185998 -0.406348
			-0.896274  0.140061 -0.420804
			-0.803819  0.296613 -0.515652
			-0.613600  0.339802 -0.712762
			-0.593514  0.247798 -0.765727
			-0.469457  0.311117 -0.826327
			-0.514447  0.004704  0.857510
			-0.024275  0.204840 -0.978494
			 0.300005  0.241870 -0.922765
			-0.064767  0.165478 -0.984085
			-0.235964  0.201157 -0.950714
			-0.283037  0.266737 -0.921272
			 0.829741  0.145783 -0.538774
			 0.812239  0.234424 -0.534147
			 0.731472  0.386958 -0.561438
			 0.504269  0.342434 -0.792750
			 0.781369  0.289376 -0.552923
			 0.793122  0.357207 -0.493315
			-0.743315  0.033288  0.668113
			-0.431136  0.012825  0.902196
			-0.583944  0.027948  0.811313
			-0.267031 -0.001215  0.963687
			-0.406968 -0.012683  0.913354
			-0.342651 -0.005191  0.939448
			-0.989092  0.054934  0.136670
			-0.972430 -0.020491  0.232291
			-0.944865  0.029433  0.326134
			-0.981479 -0.182213 -0.059138
			-0.968873 -0.095882  0.228236
			-0.906386 -0.261728  0.331608
			-0.944609 -0.168981  0.281351
			-0.961847 -0.236995  0.136688
			-0.977790 -0.114761 -0.175376
			-0.862822 -0.168122 -0.476732
			-0.914010 -0.198415 -0.353860
			-0.704905 -0.174651 -0.687464
			-0.865400  0.071451  0.495962
			-0.515829 -0.208478 -0.830938
			-0.159349 -0.386890 -0.908253
			-0.351865 -0.335151 -0.873994
			-0.517909 -0.278805 -0.808726
			-0.323299 -0.315549 -0.892136
			 0.940340 -0.229386 -0.251283
			 0.809438 -0.262725 -0.525153
			 0.989496 -0.021194 -0.142999
			 0.992944 -0.053736 -0.105710
			 0.990170 -0.090712 -0.106469
			 0.997310 -0.034184 -0.064842
			 0.708726 -0.236353 -0.664714
			 0.673677 -0.330234 -0.661139
			 0.528253 -0.271805 -0.804407
			 0.612829 -0.332206 -0.716994
			 0.097480 -0.297481 -0.949738
			 0.027964 -0.383143 -0.923266
			 0.242736 -0.270935 -0.931490
			 0.997666  0.055571  0.039690
			 0.995270  0.033989  0.091005
			 0.986861  0.041725  0.156094
			 0.996136  0.061086  0.063092
			 0.966013  0.046153  0.254340
			 0.998964  0.043500 -0.013377
			 0.992694  0.068724  0.099178
			 0.996662  0.073415 -0.035719
			 0.994794  0.100317  0.017922
			 0.994809  0.094098  0.038748
			 0.950906  0.009072  0.309347
			 0.911957  0.023836  0.409593
			 0.873923  0.036020  0.484728
			 0.973951  0.013403  0.226364
			 0.935489 -0.019501  0.352817
			 0.992334 -0.044615  0.115249
			 0.949848 -0.009692  0.312562
			 0.891515  0.034469  0.451678
			 0.830450  0.023327  0.556604
			 0.985461  0.077655 -0.151119
			 0.983714  0.086720 -0.157440
			 0.925182  0.116707 -0.361133
			-0.264518 -0.019305  0.964187
			-0.425169 -0.058975  0.903191
			-0.301708 -0.015901  0.953268
			-0.044585 -0.016662  0.998867
			-0.141271 -0.021274  0.989742
			-0.139434 -0.018867  0.990052
			-0.164230 -0.036175  0.985759
			-0.120581 -0.025235  0.992383
			 0.033307 -0.005972  0.999427
			-0.149105 -0.007611  0.988792
			-0.723560  0.035924  0.689326
			-0.855591  0.053417  0.514889
			-0.756328  0.098875  0.646678
			-0.770117  0.037266  0.636813
			-0.986821  0.136831 -0.086376
			-0.717908  0.171990  0.674558
			-0.964262  0.224941  0.140002
			-0.867106  0.218489  0.447649
			-0.242147 -0.035295  0.969597
			-0.398525  0.024907  0.916819
			-0.288816 -0.016744  0.957238
			-0.313730 -0.035970  0.948831
			-0.354655  0.042241  0.934043
			-0.583915  0.037131  0.810965
			-0.912588  0.177497 -0.368344
			-0.932231  0.207772 -0.296271
			-0.917911  0.240248 -0.315787
			-0.764794  0.366116 -0.530140
			-0.867541  0.291258 -0.403164
			-0.443511  0.403701 -0.800203
			-0.467044  0.446135 -0.763436
			-0.268850  0.328473 -0.905442
			-0.260728 -0.023246  0.965132
			 0.128552  0.144088 -0.981179
			 0.217544  0.216456 -0.951746
			-0.151361  0.248422 -0.956753
			 0.037135  0.231673 -0.972085
			-0.182355  0.263424 -0.947288
			 0.920555  0.096840 -0.378418
			 0.881853  0.143043 -0.449304
			 0.918393  0.233736 -0.319252
			 0.903295  0.319571 -0.286238
			 0.635000  0.447245 -0.629878
			 0.782779  0.457558 -0.421779
			 0.305134  0.299934 -0.903843
			 0.447051  0.407465 -0.796315
			 0.262581  0.363638 -0.893767
			-0.409058  0.069831  0.909833
			-0.480745  0.039665  0.875963
			-0.807670  0.020721  0.589271
			-0.400797  0.043415  0.915138
			-0.144060  0.017338  0.989417
			-0.119972 -0.011417  0.992712
			-0.207024 -0.017711  0.978176
			-0.143267 -0.003435  0.989678
			-0.131269  0.014377  0.991243
			-0.096224  0.005278  0.995346
			-0.062701 -0.009092  0.997991
			-0.881475 -0.007305  0.472175
			-0.967558 -0.117918  0.223442
			-0.869077 -0.059003  0.491146
			-0.896809 -0.048835  0.439715
			-0.816500  0.011318  0.577234
			-0.908046  0.001325  0.418869
			-0.968053 -0.236300 -0.083875
			-0.936993 -0.220645 -0.270850
			-0.919982 -0.321827  0.223741
			-0.919385 -0.312629  0.238736
			-0.863082 -0.324884  0.386705
			-0.959606 -0.233297  0.157255
			-0.950065 -0.271733 -0.153419
			-0.655673 -0.211448 -0.724832
			-0.687109 -0.241941 -0.685088
			-0.867670 -0.211525 -0.449896
			-0.345236 -0.431324 -0.833530
			 0.174449 -0.522660 -0.834503
			-0.251552 -0.503436 -0.826603
			-0.022602 -0.577024 -0.816414
			-0.445372 -0.389814 -0.806033
			-0.628373 -0.230844 -0.742872
			-0.770056 -0.172405 -0.614240
			-0.752535 -0.208950 -0.624525
			-0.735730 -0.256551 -0.626804
			-0.363266 -0.458923 -0.810819
			 0.851702 -0.239679 -0.466001
			 0.897926 -0.300400 -0.321698
			 0.953546 -0.297983  0.044218
			 0.989969 -0.140900  0.010424
			 0.994789 -0.033934  0.096141
			 0.988854 -0.050383  0.140105
			 0.987514 -0.048772  0.149794
			 0.989203 -0.047721  0.138563
			 0.988597 -0.046095  0.143359
			 0.821667 -0.286088 -0.492967
			 0.740849 -0.171738 -0.649345
			 0.516226 -0.196966 -0.833496
			 0.270116 -0.340517 -0.900603
			 0.978189  0.062971  0.197944
			 0.972865  0.063810  0.222402
			 0.952406  0.029290  0.303422
			 0.903744  0.048777  0.425285
			 0.898682  0.044179  0.436371
			 0.977508  0.075846  0.196789
			 0.953791  0.047855  0.296636
			 0.993561  0.073277  0.086408
			 0.988932  0.066963  0.132401
			 0.994313  0.099555  0.037822
			 0.808263  0.024254  0.588322
			 0.877744  0.015777  0.478870
			 0.781541  0.033382  0.622960
			 0.805971  0.023110  0.591503
			 0.928247 -0.042880  0.369486
			 0.800866 -0.003606  0.598833
			 0.816866 -0.015904  0.576608
			 0.795025  0.001167  0.606576
			 0.833155  0.038919  0.551669
			 0.676957  0.016149  0.735845
			 0.717498  0.005694  0.696538
			 0.997318  0.062744 -0.037675
			 0.981743  0.095906 -0.164263
			 0.992277  0.122345 -0.020462
			-0.202171 -0.015917  0.979221
			-0.192570 -0.017328  0.981130
			-0.194494 -0.029687  0.980454
			-0.144909 -0.006086  0.989426
			-0.162740 -0.016380  0.986533
			 0.096071 -0.022709  0.995115
			 0.042534 -0.007575  0.999066
			 0.554084  0.025330  0.832075
			 0.425388 -0.000383  0.905011
			-0.109506 -0.021011  0.993764
			 0.027241  0.007675  0.999599
			 0.035941 -0.008647  0.999317
			 0.417698  0.003770  0.908578
			 0.330462 -0.003256  0.943814
			 0.365206  0.024220  0.930612
			-0.426163  0.046326  0.903460
			-0.955191  0.268504 -0.124565
			-0.667231  0.204704  0.716170
			-0.453168  0.122957  0.882904
			-0.939904  0.276340  0.200540
			-0.835434  0.232217  0.498121
			-0.574881  0.205245  0.792077
			-0.179196 -0.029862  0.983360
			-0.143889 -0.055983  0.988009
			-0.074728  0.022990  0.996939
			 0.041425  0.039655  0.998354
			-0.239879 -0.022415  0.970544
			-0.947910  0.128741 -0.291364
			-0.886338  0.046183 -0.460731
			-0.860002  0.191780 -0.472881
			-0.885080  0.304786 -0.351766
			-0.971550  0.138117 -0.192391
			-0.972916  0.147318 -0.178137
			-0.897688  0.255648 -0.358888
			-0.765869  0.430933 -0.477222
			-0.924972  0.295906 -0.238465
			-0.170191  0.334333 -0.926961
			-0.337840  0.422195 -0.841199
			-0.603084  0.466996 -0.646687
			-0.189335 -0.026812  0.981546
			 0.162092  0.235625 -0.958231
			-0.021141  0.268956 -0.962920
			 0.944333  0.143257 -0.296165
			 0.928352  0.284541 -0.239163
			 0.920687  0.313900 -0.231954
			 0.898715  0.279989 -0.337518
			 0.875921  0.190326 -0.443327
			 0.913059  0.278274 -0.298138
			 0.891052  0.417763 -0.177483
			 0.939508  0.283381 -0.192406
			 0.975647  0.213044 -0.052208
			 0.725333  0.316439 -0.611357
			 0.534421  0.424659 -0.730793
			 0.849296  0.234722 -0.472865
			 0.143393  0.288924 -0.946553
			 0.267846  0.365859 -0.891295
			 0.097961  0.259503 -0.960761
			 0.211005  0.334238 -0.918565
			 0.080476  0.331729 -0.939936
			-0.123242  0.073267  0.989668
			-0.053545  0.095337  0.994004
			-0.152376  0.081052  0.984993
			-0.225622  0.076840  0.971180
			-0.512791  0.057716  0.856572
			 0.140721  0.040387  0.989225
			 0.027280  0.061328  0.997745
			-0.016474 -0.001439  0.999863
			 0.200107  0.024840  0.979459
			-0.734128  0.059867  0.676366
			-0.478103  0.029608  0.877804
			-0.711402 -0.034452  0.701941
			-0.952568 -0.221119  0.209094
			-0.809913 -0.141079  0.569331
			-0.482221 -0.041210  0.875080
			-0.447362  0.031848  0.893786
			-0.455128  0.039864  0.889533
			-0.901923 -0.140532 -0.408395
			-0.901221 -0.151413 -0.406049
			-0.904116 -0.377460  0.200246
			-0.907528 -0.412763 -0.077593
			-0.914598 -0.404341  0.004267
			-0.892110 -0.427394  0.146540
			-0.974492 -0.219418 -0.047131
			-0.955135 -0.232788 -0.183104
			-0.920950 -0.097889 -0.377185
			-0.924810 -0.376013  0.057798
			-0.877552 -0.147506 -0.456228
			-0.821836 -0.166302 -0.544913
			-0.364583 -0.492915 -0.790009
			-0.409373 -0.466658 -0.783993
			-0.346809 -0.458752 -0.818090
			 0.462373 -0.398875 -0.791903
			 0.165561 -0.545555 -0.821559
			 0.391493 -0.465033 -0.794026
			 0.292666 -0.439658 -0.849145
			-0.241321 -0.528902 -0.813651
			 0.027338 -0.457691 -0.888691
			-0.452216 -0.400212 -0.797077
			-0.905229 -0.064658 -0.419976
			-0.917615 -0.080986 -0.389133
			-0.780167 -0.191317 -0.595598
			-0.826260 -0.137020 -0.546370
			-0.903187 -0.036944 -0.427655
			-0.924356 -0.051690 -0.378014
			-0.898694 -0.178106 -0.400784
			-0.349104 -0.352455 -0.868275
			-0.791515 -0.186241 -0.582082
			-0.626348 -0.335751 -0.703534
			 0.943980 -0.325166 -0.056288
			 0.964599 -0.245867  0.095382
			 0.927625 -0.284091  0.242494
			 0.979843 -0.159142  0.120750
			 0.977093 -0.108842  0.182875
			 0.945862 -0.034969  0.322680
			 0.937571 -0.045917  0.344750
			 0.953783 -0.039288  0.297917
			 0.917847 -0.039698  0.394944
			 0.901307 -0.053675  0.429842
			 0.946304 -0.050050  0.319381
			 0.909506 -0.100349  0.403397
			 0.883911 -0.091487  0.458619
			 0.820617 -0.110021 -0.560788
			 0.954297 -0.287573 -0.081355
			 0.958395 -0.126672 -0.255800
			 0.990647 -0.087576 -0.104635
			 0.715691 -0.176739 -0.675684
			 0.549766 -0.267240 -0.791417
			 0.944790  0.052635  0.323421
			 0.843179  0.031296  0.536721
			 0.839396  0.027125  0.542842
			 0.690805  0.019833  0.722769
			 0.979133  0.074395  0.189115
			 0.885680  0.072340  0.458627
			 0.976422  0.102314  0.190085
			 0.944688  0.052375  0.323762
			 0.902263  0.086044  0.422514
			 0.613494  0.033804  0.788976
			 0.724997  0.003381  0.688744
			 0.854593 -0.041177  0.517663
			 0.647682 -0.015769  0.761748
			 0.720629  0.024673  0.692882
			 0.679410  0.019154  0.733509
			 0.687046 -0.053668  0.724629
			 0.707279  0.010117  0.706863
			 0.564637 -0.004112  0.825329
			 0.590601 -0.011866  0.806876
			 0.976726  0.203725 -0.067108
			 0.980259  0.161358  0.114265
			-0.157025 -0.046005  0.986522
			 0.143709 -0.033420  0.989055
			 0.345375  0.001100  0.938464
			 0.362334  0.011198  0.931981
			 0.373758  0.013163  0.927433
			 0.784837  0.050480  0.617643
			 0.564584  0.041010  0.824356
			 0.749226  0.081904  0.657231
			 0.783433  0.054877  0.619049
			 0.579942  0.015857  0.814504
			 0.391361 -0.004859  0.920225
			-0.245363  0.043390  0.968460
			-0.225113  0.007143  0.974307
			-0.966956  0.254079 -0.020979
			-0.940851  0.200399  0.273202
			-0.851176  0.139563  0.505987
			-0.693075  0.138436  0.707448
			-0.708611  0.195997  0.677832
			-0.490283  0.173034  0.854214
			-0.258770  0.129740  0.957186
			-0.187055 -0.012719  0.982267
			-0.158241 -0.002142  0.987398
			-0.131763 -0.021696  0.991044
			-0.137395 -0.041086  0.989664
			-0.020267 -0.002052  0.999792
			-0.129881 -0.060525  0.989681
			-0.966311 -0.027857 -0.255866
			-0.853598  0.206902 -0.478081
			-0.864978 -0.138084 -0.482437
			-0.936383  0.011989 -0.350775
			-0.921851  0.113398 -0.370583
			-0.906569 -0.128786 -0.401929
			-0.952284  0.250794 -0.173945
			-0.997156 -0.031285 -0.068571
			-0.981351  0.190808 -0.023285
			-0.987366  0.121222  0.102045
			-0.861795  0.397057 -0.315682
			-0.572636  0.433692 -0.695701
			-0.944666  0.318082  0.080189
			-0.213622  0.345832 -0.913655
			-0.099011  0.242453 -0.965098
			 0.068885  0.260149 -0.963108
			-0.036191  0.248867 -0.967861
			 0.942878  0.275915 -0.186690
			 0.937177  0.324309 -0.128540
			 0.948037  0.288457 -0.134229
			 0.884136  0.199502 -0.422497
			 0.918890  0.171644 -0.355217
			 0.930918  0.132984 -0.340156
			 0.964664  0.148683 -0.217523
			 0.936933  0.221499 -0.270359
			 0.982650  0.140256 -0.121360
			 0.993221  0.115779  0.010352
			 0.999051  0.034977 -0.025958
			 0.975322  0.181240 -0.126093
			 0.999067 -0.001815 -0.043150
			 0.781435  0.357969 -0.511095
			 0.264036  0.330836 -0.905998
			 0.588954  0.357860 -0.724617
			 0.052679  0.269270 -0.961623
			 0.034718  0.168151 -0.985150
			 0.086728  0.191182 -0.977716
			 0.071552  0.079698  0.994248
			 0.126863  0.067173  0.989643
			 0.079723  0.040500  0.995994
			-0.050066  0.045067  0.997729
			-0.142756  0.072515  0.987098
			-0.218646  0.084627  0.972128
			 0.507902  0.032257  0.860810
			 0.532847  0.010006  0.846152
			 0.248649  0.042074  0.967679
			 0.430703  0.024470  0.902162
			 0.547548  0.036222  0.835990
			-0.185813  0.054738  0.981059
			-0.161930  0.024746  0.986492
			-0.828941 -0.303464  0.469857
			-0.475378 -0.124790  0.870886
			-0.224504 -0.003756  0.974466
			-0.225592 -0.060304  0.972354
			-0.275747 -0.019829  0.961026
			-0.878160  0.013243 -0.478184
			-0.906427 -0.420826 -0.036006
			-0.919647 -0.379562  0.100906
			-0.908183 -0.418526 -0.006259
			-0.881939 -0.390262  0.264347
			-0.924218 -0.353579  0.144235
			-0.898110 -0.434454  0.068179
			-0.898399 -0.435211  0.058911
			-0.879897 -0.133438 -0.456043
			-0.838358  0.042221 -0.543483
			-0.855988  0.043466 -0.515165
			-0.862683 -0.374242  0.340178
			-0.317068 -0.397862 -0.860914
			-0.230273 -0.416113 -0.879673
			 0.657206 -0.296086 -0.693119
			 0.638398 -0.360691 -0.679963
			 0.473777 -0.387007 -0.791051
			 0.413380 -0.337127 -0.845850
			 0.103584 -0.393468 -0.913484
			-0.950139  0.012196 -0.311589
			-0.957476 -0.003873 -0.288486
			-0.929904 -0.019543 -0.367282
			-0.949707 -0.064118 -0.306505
			-0.497732 -0.221393 -0.838599
			-0.209071 -0.301996 -0.930101
			-0.123647 -0.305929 -0.943991
			-0.103521 -0.232048 -0.967180
			-0.163542 -0.250562 -0.954187
			-0.920781  0.038553 -0.388171
			-0.712133 -0.058181 -0.699629
			 0.950846 -0.292306  0.102218
			 0.962160 -0.222209  0.157706
			 0.939520 -0.307990  0.149816
			 0.936065 -0.325222  0.134214
			 0.945360 -0.242142  0.218315
			 0.920151 -0.286952  0.266423
			 0.943453 -0.220641  0.247414
			 0.912873 -0.177189  0.367787
			 0.894049 -0.130988  0.428390
			 0.846681 -0.028961  0.531312
			 0.845982 -0.041575  0.531589
			 0.788976 -0.032865  0.613544
			 0.834835 -0.070634  0.545949
			 0.803948 -0.037341  0.593527
			 0.810052 -0.072992  0.581797
			 0.747561 -0.158155  0.645089
			 0.805128 -0.136841  0.577099
			 0.683023 -0.096436  0.724002
			 0.886365 -0.147256 -0.438945
			 0.962750 -0.190592 -0.191797
			 0.801489 -0.244027 -0.545954
			 0.795795  0.080708  0.600164
			 0.845043  0.099308  0.525395
			 0.938143  0.142090  0.315750
			 0.673947  0.071685  0.735294
			 0.643856 -0.086098  0.760287
			 0.589816  0.024396  0.807169
			 0.949435  0.272911  0.155218
			 0.951672  0.163753  0.259817
			-0.038911 -0.065296  0.997107
			 0.423772  0.011055  0.905701
			 0.196599 -0.045570  0.979425
			 0.700415  0.069908  0.710304
			-0.175951  0.019259  0.984210
			-0.970410  0.178620  0.162480
			-0.912274  0.047044  0.406869
			-0.762843  0.078051  0.641855
			-0.379932  0.125443  0.916469
			-0.461377  0.136179  0.876691
			-0.175382  0.136046  0.975055