<?xml version="1.0"?>
<VTKFile type="PolyData" version="0.1" byte_order="LittleEndian" compressor="vtkZLibDataCompressor">
	<PolyData>
		<Piece NumberOfPoints="1269" NumberOfVerts="0" NumberOfLines="0" NumberOfStrips="0" NumberOfPolys="2552">
		<PointData Normals="Normals">
		<DataArray type="Float32" Name="Normals" NumberOfComponents="3" format="ascii">
			 0.841231 -0.449933  0.299817
			 0.950977 -0.173632  0.255920
			 0.923288 -0.115349  0.366379
			 0.678868 -0.505316  0.532723
			 0.426620 -0.892600  0.145811
			 0.804921 -0.593144  0.016808
			 0.875211 -0.132819  0.465151
			 0.868169 -0.493152  0.055534
			 0.838993 -0.208583  0.502576
			 0.939550  0.021321  0.341746
			 0.793793 -0.254420  0.552416
			 0.335822 -0.770261  0.542146
			 0.087725 -0.971028  0.222282
			-0.116197 -0.992230 -0.044464
			 0.040831 -0.977888 -0.205103
			 0.331225 -0.888707 -0.317000
			 0.891299 -0.061981  0.449160
			 0.515287 -0.779554 -0.356054
			 0.788150 -0.586121 -0.187836
			 0.905233 -0.273094  0.325536
			 0.866123 -0.006670  0.499787
			 0.853723 -0.007881  0.520667
			 0.626023 -0.241826  0.741360
			 0.469911 -0.574500  0.670174
			-0.112478 -0.917098  0.382466
			-0.062470 -0.806701  0.587648
			-0.160010 -0.971976  0.172221
			-0.131368 -0.937184 -0.323155
			-0.205110 -0.969765 -0.132232
			-0.212382 -0.975953  0.049085
			-0.254924 -0.941639  0.219840
			-0.141829 -0.896508 -0.419711
			-0.023078 -0.786414 -0.617269
			 0.770193 -0.038734  0.636634
			 0.720166 -0.151344  0.677094
			 0.881937 -0.164182  0.441849
			 0.913304 -0.161000  0.374106
			 0.902262 -0.076081  0.424424
			 0.460773 -0.644189 -0.610500
			 0.792632 -0.486551 -0.367427
			 0.930394 -0.094342  0.354213
			 0.822519 -0.059025  0.565667
			 0.228141 -0.537283  0.811960
			 0.550043 -0.222188  0.805037
			-0.164992 -0.717787  0.676431
			-0.231120 -0.874809  0.425785
			-0.165867 -0.940923 -0.295217
			 0.063967 -0.995283  0.072931
			-0.280564 -0.752900 -0.595337
			-0.297434 -0.607726 -0.736344
			-0.207943 -0.522926 -0.826625
			 0.103931 -0.629793 -0.769779
			 0.716106 -0.180327  0.674295
			 0.527492 -0.047963  0.848205
			 0.470029 -0.104430  0.876451
			 0.435035 -0.163919  0.885367
			 0.893062 -0.214734  0.395386
			 0.841852 -0.166504  0.513383
			 0.895797 -0.205639  0.394031
			 0.881949 -0.197265  0.428080
			 0.395770 -0.472999 -0.787171
			 0.512852 -0.335441 -0.790229
			 0.589601 -0.474716 -0.653464
			 0.968804 -0.083863 -0.233207
			 0.903745 -0.090120  0.418477
			 0.262479 -0.352941  0.898074
			-0.225326 -0.557012  0.799354
			-0.287594 -0.687575  0.666731
			-0.101652 -0.849788  0.517230
			 0.214851 -0.922731 -0.320010
			-0.108489 -0.717755 -0.687793
			 0.159019 -0.872126  0.462719
			 0.231094 -0.946276  0.226178
			 0.260742 -0.959599 -0.105756
			 0.100620 -0.394118 -0.913535
			-0.260225 -0.300241 -0.917681
			-0.002850 -0.469030 -0.883178
			-0.143937 -0.315580 -0.937919
			 0.240728 -0.051070  0.969248
			 0.793235 -0.044168  0.607311
			 0.700076  0.053773  0.712040
			 0.616863  0.033532  0.786356
			 0.219124 -0.078532  0.972532
			 0.216165 -0.139891  0.966283
			 0.900723 -0.071983  0.428388
			 0.913127 -0.176272  0.367597
			 0.937780 -0.141509  0.317086
			 0.899832 -0.285111  0.330173
			 0.180927 -0.361199 -0.914768
			 0.651820 -0.015832 -0.758209
			 0.197681 -0.161771 -0.966826
			 0.985057 -0.053373  0.163751
			 0.759341  0.137998 -0.635891
			 0.886312  0.162942 -0.433475
			 0.960623 -0.059294  0.271454
			-0.025396 -0.312310  0.949641
			-0.322477 -0.546129  0.773144
			-0.301318 -0.394135  0.868254
			-0.015385 -0.639030  0.769028
			 0.244113 -0.969592 -0.017349
			 0.313658 -0.917597 -0.244200
			 0.151658 -0.735065 -0.660817
			 0.370397 -0.749995 -0.548009
			 0.259724 -0.588109 -0.765945
			 0.170152 -0.777423  0.605527
			 0.020592 -0.970329  0.240909
			 0.165436 -0.883271  0.438706
			-0.166457 -0.212260 -0.962932
			 0.235001 -0.132857 -0.962873
			 0.368110 -0.130825 -0.920532
			 0.226975 -0.296328 -0.927724
			 0.204465 -0.511216 -0.834776
			 0.367905 -0.608803 -0.702855
			-0.296780 -0.226208 -0.927767
			-0.207601 -0.198915 -0.957776
			-0.053498 -0.080665  0.995305
			-0.115684 -0.107427  0.987460
			-0.003260 -0.111959  0.993707
			 0.013038 -0.125511  0.992007
			 0.394347 -0.034492  0.918314
			 0.175005 -0.127970  0.976216
			 0.857677  0.064176  0.510169
			 0.642552 -0.023367  0.765886
			 0.448223 -0.054512  0.892258
			 0.763175  0.049670  0.644280
			 0.797655  0.077023  0.598175
			-0.097353 -0.195888  0.975782
			 0.940664  0.070246  0.331988
			 0.974715  0.140498  0.173755
			 0.990276  0.120588 -0.069367
			 0.461225  0.111716 -0.880222
			-0.039526 -0.008716 -0.999181
			 0.241214  0.093278 -0.965979
			 0.471828  0.280594 -0.835850
			 0.570123  0.463249 -0.678498
			-0.080642 -0.526548  0.846312
			-0.248672 -0.193673  0.949027
			-0.181215 -0.332451  0.925547
			-0.041988 -0.544542  0.837682
			 0.205668 -0.495003  0.844199
			 0.108833 -0.992833 -0.049373
			 0.186016 -0.923364 -0.335854
			 0.272974 -0.744522 -0.609239
			-0.071495 -0.834283  0.546682
			-0.207457 -0.977272 -0.043596
			-0.092857 -0.943263  0.318799
			-0.399483 -0.863084  0.309029
			 0.164878  0.027507 -0.985930
			-0.230243 -0.065879 -0.970901
			 0.237060 -0.087521 -0.967545
			 0.039637 -0.369623 -0.928336
			 0.071590 -0.205094 -0.976121
			 0.107590 -0.684712 -0.720829
			 0.012924 -0.621972 -0.782933
			-0.054290 -0.454945 -0.888863
			-0.193254 -0.133175  0.972069
			-0.199932 -0.097065  0.974990
			-0.195870 -0.146351  0.969647
			-0.143466 -0.136844  0.980148
			-0.105742 -0.170374  0.979689
			-0.065578 -0.165947  0.983952
			 0.380198 -0.130962  0.915586
			 0.061081 -0.168535  0.983801
			-0.091632 -0.178980  0.979576
			 0.922641  0.100770  0.372262
			 0.901865  0.086283  0.423314
			 0.788379 -0.055319  0.612698
			 0.553460 -0.106529  0.826035
			 0.699093 -0.080680  0.710465
			 0.885333  0.017109  0.464642
			 0.968676  0.121597  0.216519
			 0.970839  0.238636  0.022911
			 0.862003  0.486978 -0.140722
			 0.859653  0.380848 -0.340517
			 0.726469  0.541700 -0.422853
			 0.742502  0.462517 -0.484530
			 0.171300  0.234714 -0.956852
			-0.186580  0.158668 -0.969542
			-0.022700  0.226233 -0.973809
			 0.197705  0.494828 -0.846202
			 0.313223  0.676493 -0.666520
			 0.168401  0.683623 -0.710142
			 0.100624 -0.362926  0.926369
			-0.062747 -0.139379  0.988249
			-0.230031 -0.272356  0.934295
			 0.059211 -0.369771  0.927234
			-0.629154 -0.292440  0.720170
			-0.479345 -0.407647  0.777208
			-0.328895 -0.641812  0.692752
			-0.078561 -0.951469 -0.297548
			 0.039691 -0.855939 -0.515551
			-0.620182 -0.548284  0.561033
			-0.551917 -0.833832 -0.010559
			-0.304277 -0.861954 -0.405526
			-0.793624 -0.454472  0.404494
			-0.767135 -0.596334  0.236410
			-0.265949  0.176300 -0.947729
			-0.014025  0.309079 -0.950933
			 0.333326  0.049684 -0.941502
			 0.287051  0.157951 -0.944803
			 0.323786  0.263188 -0.908787
			-0.118452 -0.048890 -0.991756
			 0.045570  0.120834 -0.991626
			-0.130334 -0.213566 -0.968195
			-0.328967 -0.730091 -0.598956
			-0.350081 -0.249038 -0.903008
			-0.480997 -0.551283 -0.681710
			-0.143622 -0.127621  0.981369
			-0.219339 -0.145833  0.964688
			-0.193255 -0.160498  0.967932
			 0.272406 -0.131526  0.953151
			-0.025779 -0.155794  0.987453
			-0.125169 -0.164468  0.978408
			-0.315434 -0.142496  0.938188
			 0.901981 -0.073100  0.425542
			 0.755554 -0.103394  0.646876
			 0.596381 -0.123633  0.793123
			 0.972395  0.003956  0.233305
			 0.967855  0.109629 -0.226357
			 0.919317  0.284179 -0.272212
			 0.551280  0.732110 -0.400132
			 0.431662  0.756801 -0.490836
			 0.627779  0.273296 -0.728837
			 0.495883  0.426849 -0.756241
			 0.351196  0.613487 -0.707315
			-0.011780  0.494239 -0.869247
			-0.258198  0.325753 -0.909516
			-0.184377  0.369053 -0.910937
			 0.170950  0.642806 -0.746710
			-0.044431  0.642468 -0.765024
			-0.046230 -0.178861  0.982788
			-0.131585 -0.123105  0.983631
			-0.060664 -0.077863  0.995117
			-0.672084 -0.180833  0.718055
			-0.402380 -0.131932  0.905916
			-0.871306 -0.177370  0.457564
			-0.928882 -0.161644  0.333240
			-0.769823 -0.637690  0.026920
			-0.743153 -0.649759 -0.159803
			-0.912419 -0.314428  0.261966
			-0.948294 -0.273127  0.161681
			-0.190849  0.619906 -0.761113
			-0.101872  0.601906 -0.792043
			 0.165590  0.577637 -0.799322
			 0.150745  0.367351 -0.917785
			-0.288224  0.155971 -0.944775
			-0.518557 -0.086697 -0.850636
			-0.076029  0.338274 -0.937971
			-0.799386 -0.568945 -0.193089
			-0.769212 -0.218313 -0.600544
			-0.630609 -0.302061 -0.714906
			-0.880557 -0.418005 -0.223365
			-0.243862 -0.067420  0.967464
			-0.412669 -0.080355  0.907330
			-0.016277 -0.133317  0.990940
			 0.373390 -0.108040  0.921362
			 0.142836 -0.115723  0.982958
			-0.216684 -0.117560  0.969138
			-0.120643 -0.151326  0.981094
			-0.496088 -0.100145  0.862478
			-0.469595 -0.106128  0.876480
			-0.445689 -0.089826  0.890670
			 0.979973 -0.086643  0.179292
			 0.876842 -0.090292  0.472224
			 0.727967 -0.119709  0.675081
			 0.607072 -0.120245  0.785497
			 0.982989  0.032446 -0.180774
			 0.854674  0.056995 -0.516027
			 0.575488  0.104048 -0.811164
			 0.247568  0.202640 -0.947442
			 0.344269  0.144283 -0.927718
			 0.222191  0.422017 -0.878938
			-0.222102  0.557738 -0.799749
			-0.081184  0.371373 -0.924928
			-0.153319 -0.081943  0.984773
			-0.836249 -0.115489  0.536050
			-0.832311 -0.134450  0.537755
			-0.451724 -0.077058  0.888823
			-0.974582 -0.069100  0.213110
			-0.934623 -0.215143  0.283183
			-0.955469 -0.119874  0.269646
			-0.950899 -0.247426  0.185935
			-0.105214  0.635793 -0.764655
			 0.170027  0.632343 -0.755800
			 0.210567  0.651850 -0.728528
			 0.236877  0.501981 -0.831808
			 0.139407  0.550693 -0.822984
			 0.096008  0.622225 -0.776929
			-0.242715  0.325431 -0.913884
			-0.651287  0.029082 -0.758274
			-0.382870  0.213914 -0.898694
			-0.936078 -0.166733 -0.309772
			 0.035207  0.544943 -0.837734
			-0.966490 -0.242773  0.083414
			-0.982440 -0.151780 -0.108514
			-0.937242 -0.215648  0.273996
			-0.537757  0.011776  0.843018
			-0.415221  0.012747  0.909631
			-0.622117 -0.019568  0.782680
			 0.011518 -0.109169  0.993957
			-0.217195 -0.114748  0.969360
			-0.134791 -0.102384  0.985570
			-0.264045 -0.121594  0.956815
			 0.117178 -0.090622  0.988968
			 0.426436 -0.087404  0.900285
			-0.642112 -0.071480  0.763271
			-0.607102 -0.063175  0.792108
			-0.403235 -0.078065  0.911761
			-0.600188 -0.054437  0.798004
			-0.693096 -0.046113  0.719369
			 0.869716 -0.109820  0.481180
			 0.891430 -0.126911  0.435025
			 0.986143 -0.148900  0.073156
			 0.942932 -0.025711 -0.331991
			 0.795550 -0.109853  0.595846
			 0.730893 -0.071944  0.678690
			 0.676771 -0.060824  0.733676
			 0.582786 -0.071217  0.809499
			 0.748697  0.081901 -0.657833
			 0.550798  0.126511 -0.824995
			 0.239664  0.104163 -0.965252
			 0.314882  0.083396 -0.945460
			 0.040605  0.177347 -0.983310
			 0.089988  0.083004 -0.992478
			-0.213090  0.335133 -0.917757
			-0.225187  0.374387 -0.899514
			-0.107499  0.144886 -0.983591
			-0.787405 -0.127894  0.603023
			-0.922555 -0.167595  0.347569
			-0.574905 -0.015126  0.818080
			-0.898434 -0.225059  0.377047
			-0.858188 -0.257745  0.443937
			-0.923947 -0.192726  0.330421
			-0.908012 -0.280529  0.311154
			-0.933255 -0.259541  0.248339
			 0.007639  0.295418 -0.955337
			 0.108278  0.673489 -0.731224
			 0.268752  0.513609 -0.814848
			 0.230818  0.263443 -0.936654
			 0.195251  0.234486 -0.952310
			 0.361311  0.373790 -0.854246
			 0.194539  0.630950 -0.751038
			-0.187119  0.432563 -0.881973
			-0.770366  0.130492 -0.624106
			-0.675200  0.258588 -0.690824
			-0.928377 -0.213366  0.304288
			 0.182170  0.573618 -0.798609
			-0.960960  0.120833 -0.248908
			-0.999832  0.017121 -0.006575
			-0.692220  0.007180  0.721651
			-0.730989  0.011567  0.682291
			-0.078344 -0.047493  0.995795
			-0.227492 -0.066814  0.971485
			 0.031991 -0.068723  0.997123
			 0.259362 -0.089314  0.961642
			 0.577902 -0.045913  0.814814
			 0.391670 -0.068454  0.917556
			-0.833188 -0.013866  0.552816
			-0.710678 -0.081330  0.698800
			-0.429272 -0.056118  0.901430
			-0.576882 -0.041475  0.815774
			-0.728521 -0.032585  0.684248
			-0.728291 -0.020746  0.684954
			-0.795644 -0.027157  0.605156
			-0.854833 -0.021223  0.518469
			-0.827584 -0.036894  0.560128
			 0.927324 -0.123207  0.353399
			 0.782542 -0.081393  0.617255
			 0.849858 -0.005630 -0.526982
			 0.936508 -0.135180 -0.323540
			 0.832975 -0.023104 -0.552829
			 0.703866 -0.051509  0.708463
			 0.479837  0.103542 -0.871226
			 0.615456  0.118886 -0.779153
			 0.315252  0.071255 -0.946329
			 0.184416  0.052701 -0.981434
			 0.015026  0.047122 -0.998776
			 0.061137 -0.013348 -0.998040
			 0.025709  0.010474 -0.999615
			 0.027344  0.072589 -0.996987
			 0.087140  0.051451 -0.994866
			-0.835514 -0.063238  0.545817
			-0.894027 -0.156897  0.419641
			-0.977293 -0.083373  0.194799
			-0.954772 -0.231402  0.186719
			 0.131984  0.498394 -0.856845
			 0.068210  0.357404 -0.931456
			 0.068963  0.103200 -0.992267
			 0.039895  0.155440 -0.987039
			-0.801669  0.274239 -0.531150
			 0.101077  0.551537 -0.828004
			 0.187692  0.455694 -0.870124
			-0.989474 -0.092078  0.111635
			-0.978807  0.195076 -0.062305
			-0.783296  0.039669  0.620382
			-0.866180  0.078838  0.493475
			-0.137648 -0.048908  0.989273
			-0.319010 -0.042332  0.946805
			 0.177156 -0.081822  0.980776
			 0.364869 -0.043422  0.930046
			 0.679558 -0.044861  0.732249
			 0.681076 -0.050821  0.730447
			 0.540347 -0.049431  0.839989
			 0.367943 -0.043331  0.928838
			-0.976615  0.105504  0.187331
			-0.956903 -0.002115  0.290401
			-0.467836 -0.033515  0.883180
			-0.623629 -0.017416  0.781527
			-0.808616 -0.013806  0.588175
			-0.852005  0.013364  0.523362
			-0.812328  0.012058  0.583076
			-0.962355 -0.038886  0.269001
			-0.968024 -0.041905  0.247333
			-0.936971 -0.038027  0.347330
			-0.886028 -0.017790  0.463291
			 0.906418 -0.017302 -0.422028
			 0.993405 -0.108055  0.038355
			 0.827328 -0.077275  0.556378
			 0.613267  0.041790 -0.788769
			 0.638406  0.027448 -0.769210
			 0.733370 -0.051432  0.677881
			 0.385713  0.077926 -0.919322
			 0.453235  0.069843 -0.888651
			 0.127318  0.018974 -0.991680
			 0.282417  0.055871 -0.957663
			-0.054590  0.045601 -0.997467
			-0.166751  0.042246 -0.985094
			-0.114918  0.033829 -0.992799
			-0.000883  0.029117 -0.999576
			-0.029723  0.154002 -0.987623
			-0.158714  0.155539 -0.974996
			-0.918027  0.083126  0.387706
			-0.948239  0.021478  0.316831
			-0.982862  0.141880  0.117697
			-0.980395  0.194771 -0.029825
			 0.081434  0.268775 -0.959754
			-0.592532  0.621314 -0.512713
			-0.853636  0.498269 -0.151767
			 0.077188  0.486439 -0.870298
			-0.028091  0.371121 -0.928160
			-0.873795  0.363256 -0.323307
			 0.082991 -0.050783  0.995256
			-0.182923 -0.032238  0.982599
			-0.313382 -0.001668  0.949626
			 0.744653 -0.055134  0.665171
			 0.639651 -0.041783  0.767529
			 0.751075 -0.035428  0.659266
			 0.351107 -0.053615  0.934799
			 0.487054 -0.023680  0.873051
			 0.107376 -0.057500  0.992554
			-0.997398  0.059526  0.040664
			-0.945081  0.091928 -0.313642
			-0.913853  0.283696 -0.290497
			-0.995892 -0.089289  0.015040
			-0.960974  0.038531 -0.273941
			-0.985289 -0.078883 -0.151605
			-0.417232 -0.012283  0.908717
			-0.576063 -0.009921  0.817345
			-0.701332 -0.014439  0.712689
			-0.801897 -0.008120  0.597407
			-0.892738  0.036166  0.449122
			-0.884466  0.024446  0.465964
			-0.958376 -0.057447 -0.279670
			-0.982247 -0.032808  0.184703
			-0.918606  0.001516  0.395172
			 0.674096 -0.085991 -0.733621
			 0.854376 -0.077158  0.513896
			 0.970531 -0.078555  0.227813
			 0.872684 -0.166080 -0.459173
			 0.414391 -0.009543 -0.910049
			 0.381839  0.039109 -0.923401
			 0.061334  0.030170 -0.997661
			 0.206029  0.018924 -0.978363
			-0.269874  0.095674 -0.958131
			-0.231920  0.047953 -0.971552
			-0.254095  0.082452 -0.963658
			-0.175146  0.034232 -0.983947
			-0.044838  0.045142 -0.997974
			 0.018907  0.206962 -0.978166
			-0.173277  0.215795 -0.960941
			-0.542708  0.134459 -0.829089
			-0.748312  0.442118 -0.494531
			-0.498290  0.489051 -0.715916
			-0.355818  0.328393 -0.874958
			-0.375145  0.402248 -0.835142
			-0.416216 -0.047606  0.908019
			-0.150883 -0.061065  0.986664
			 0.828064 -0.030991  0.559777
			 0.599413 -0.049285  0.798921
			 0.697868 -0.067030  0.713082
			 0.903681 -0.026186  0.427404
			 0.724932 -0.052165  0.686843
			 0.804694 -0.038492  0.592441
			 0.059229 -0.055555  0.996697
			 0.332930 -0.041524  0.942037
			-0.819219  0.053934 -0.570939
			-0.611405  0.201618 -0.765202
			-0.631844  0.096134 -0.769111
			-0.763020  0.053736 -0.644137
			-0.625944 -0.020253  0.779605
			-0.839732  0.003824  0.542988
			-0.736466 -0.025641  0.675989
			-0.906987  0.026033  0.420354
			-0.985353  0.037191  0.166425
			-0.852406 -0.074757 -0.517509
			-0.990771  0.025950 -0.133039
			-0.639601 -0.140626 -0.755735
			-0.451024  0.060964 -0.890428
			 0.311871 -0.135893 -0.940356
			 0.977023 -0.065342 -0.202872
			 0.609702 -0.081197 -0.788461
			 0.341386  0.001811 -0.939921
			 0.492029 -0.004265 -0.870568
			 0.500705  0.007275 -0.865587
			 0.332896 -0.093468 -0.938320
			 0.198825  0.028451 -0.979622
			 0.090970  0.017074 -0.995707
			-0.152930 -0.016490 -0.988099
			-0.279768 -0.079491 -0.956771
			-0.126711  0.015765 -0.991814
			-0.247762 -0.068217  0.966416
			-0.494081 -0.028250  0.868957
			-0.576005 -0.027940  0.816968
			 0.525713 -0.038665  0.849783
			 0.596981 -0.053689  0.800457
			 0.413536 -0.049623  0.909134
			 0.675866 -0.065094  0.734144
			 0.747886 -0.056467  0.661421
			 0.736724 -0.046433  0.674597
			 0.654069 -0.038038  0.755478
			 0.949274 -0.034733  0.312527
			 0.996633 -0.022492 -0.078852
			 0.776491 -0.058679  0.627390
			 0.815141 -0.034519  0.578234
			 0.882381 -0.030421  0.469552
			 0.019002 -0.073697  0.997100
			 0.184599 -0.039419  0.982023
			-0.669616 -0.009925  0.742642
			-0.761623 -0.018474  0.647757
			-0.966861  0.041926  0.251837
			-0.755319 -0.000191  0.655357
			-0.873641  0.015539  0.486323
			-0.889621  0.033875 -0.455441
			-0.992724  0.020625 -0.118635
			-0.806158  0.002775 -0.591694
			-0.452917 -0.144071 -0.879835
			-0.666889 -0.073451 -0.741529
			-0.440398 -0.249825 -0.862344
			 0.357569 -0.070673 -0.931209
			 0.302951 -0.036230 -0.952317
			 0.832991 -0.026443 -0.552655
			 0.677662 -0.039443 -0.734315
			 0.229836 -0.000061 -0.973229
			 0.320589  0.000899 -0.947218
			 0.509760 -0.015457 -0.860178
			 0.452942 -0.009342 -0.891491
			-0.036234  0.027393 -0.998968
			 0.128625  0.038737 -0.990936
			-0.029712 -0.011880 -0.999488
			-0.024210 -0.093230 -0.995350
			 0.108997 -0.023041 -0.993775
			-0.058261  0.042809 -0.997383
			-0.093014 -0.073885  0.992920
			-0.460229 -0.033124  0.887182
			-0.230563 -0.039046  0.972274
			-0.582615 -0.005715  0.812728
			 0.462964 -0.044025  0.885283
			 0.567429 -0.057506  0.821412
			 0.737439 -0.032459  0.674633
			 0.711290 -0.057314  0.700558
			 0.259102 -0.027733  0.965452
			 0.981999 -0.046239  0.183138
			 0.943472 -0.078898 -0.321924
			 0.663258  0.016524 -0.748209
			 0.927825 -0.021193  0.372413
			 0.816966 -0.028167  0.575998
			 0.907038 -0.021608  0.420494
			-0.111579 -0.047673  0.992611
			-0.087008 -0.044775  0.995201
			-0.068336 -0.020494  0.997452
			-0.629602 -0.011335  0.776835
			-0.858017  0.003208  0.513611
			-0.945292 -0.011556 -0.326020
			-0.996928  0.053601  0.057116
			-0.942692  0.006847  0.333594
			-0.977291  0.035707  0.208870
			-0.726648 -0.011454  0.686915
			-0.844696  0.193099 -0.499201
			-0.804835 -0.008473 -0.593439
			-0.449220 -0.006135 -0.893400
			-0.408830 -0.134379 -0.902663
			-0.125250 -0.058290 -0.990411
			 0.324944 -0.001701 -0.945732
			 0.457752 -0.049555 -0.887698
			 0.425196 -0.009693 -0.905049
			 0.426739 -0.041042 -0.903443
			 0.134753 -0.050464 -0.989593
			 0.317678 -0.016617 -0.948053
			 0.103089  0.035882 -0.994025
			 0.149764  0.000501 -0.988722
			 0.229455 -0.021537 -0.973081
			 0.003876  0.042968 -0.999069
			-0.585214 -0.031411  0.810270
			-0.445519 -0.034954  0.894590
			-0.269073 -0.040674  0.962261
			 0.443342 -0.034673  0.895682
			 0.597519 -0.060488  0.799570
			 0.821486 -0.081879  0.564319
			 0.717495 -0.086621  0.691157
			 0.812038 -0.129699  0.569010
			 0.276430 -0.037939  0.960285
			 0.992466 -0.028554  0.119143
			 0.967643 -0.059770 -0.245142
			 0.456352 -0.022719 -0.889509
			 0.743616 -0.094875 -0.661841
			 0.461975 -0.192109 -0.865837
			 0.999669 -0.025591  0.002549
			 0.961612 -0.030626  0.272698
			 0.912441 -0.043373  0.406903
			 0.992942 -0.020090  0.116886
			 0.967352 -0.017597  0.252825
			-0.341211 -0.035158  0.939329
			 0.085191 -0.024683  0.996059
			-0.132719 -0.018322  0.990984
			-0.370887 -0.033136  0.928087
			-0.410072 -0.019210  0.911851
			-0.721656 -0.024227  0.691828
			-0.875795 -0.003938  0.482667
			-0.975896  0.036979 -0.215082
			-0.709488 -0.012299 -0.704610
			-0.266092  0.088669 -0.959861
			-0.479674 -0.037207 -0.876658
			-0.952978  0.003695  0.303016
			-0.998131  0.030174 -0.053137
			-0.570122  0.166482 -0.804515
			-0.548374  0.051524 -0.834644
			-0.062265  0.027603 -0.997678
			 0.127069  0.036296 -0.991229
			 0.406251 -0.027658 -0.913343
			 0.157570  0.001434 -0.987507
			 0.230964  0.063241 -0.970905
			 0.163652 -0.037110 -0.985820
			 0.403688 -0.067838 -0.912378
			 0.332741 -0.041384 -0.942110
			 0.009927 -0.002543 -0.999947
			 0.131724 -0.017265 -0.991136
			 0.128473  0.000682 -0.991713
			-0.044505 -0.025491 -0.998684
			-0.631829 -0.034315  0.774348
			-0.535762 -0.030138  0.843831
			 0.468552 -0.055369  0.881699
			 0.696511 -0.141993  0.703356
			 0.602986 -0.130867  0.786944
			 0.888047 -0.104603  0.447695
			 0.881752 -0.210954  0.421914
			 0.769063 -0.180239  0.613234
			 0.899256 -0.154346  0.409288
			 0.327507 -0.040254  0.943991
			 0.890214 -0.067875 -0.450457
			 0.508346  0.018826 -0.860947
			 0.256791 -0.091438 -0.962132
			 0.163530 -0.001281 -0.986537
			 0.835405 -0.075637 -0.544406
			 0.981616 -0.047160  0.184949
			 0.964712 -0.112651  0.237992
			 0.974200 -0.045900 -0.220969
			-0.186668 -0.010652  0.982365
			 0.145742 -0.037425  0.988614
			-0.333726 -0.018545  0.942488
			-0.525860 -0.016900  0.850403
			-0.565802 -0.023762  0.824199
			-0.545695 -0.024826  0.837616
			-0.844564 -0.009712  0.535367
			-0.674646 -0.032861  0.737410
			-0.775019 -0.002020  0.631935
			-0.710621 -0.006774  0.703543
			-0.851591 -0.012021 -0.524070
			-0.578056 -0.073676 -0.812664
			-0.050920 -0.018649 -0.998529
			-0.902400  0.016362  0.430590
			-0.889835  0.007148  0.456226
			-0.879645  0.003301  0.475620
			-0.996394 -0.002275 -0.084820
			-0.996702 -0.011920  0.080265
			-0.974070 -0.018006  0.225531
			-0.985716 -0.016962  0.167561
			-0.905637 -0.023462  0.423405
			-0.763429 -0.050840 -0.643888
			 0.286513 -0.056602 -0.956403
			 0.174146 -0.042759 -0.983791
			 0.033436 -0.014006 -0.999343
			 0.322500  0.002862 -0.946565
			 0.379819 -0.109865 -0.918513
			 0.258637 -0.074399 -0.963105
			 0.005365 -0.063719 -0.997954
			 0.135176 -0.063497 -0.988785
			-0.650841 -0.016932  0.759025
			 0.288627 -0.063784  0.955315
			 0.481875 -0.118371  0.868208
			 0.614855 -0.214179  0.759000
			 0.745716 -0.243519  0.620166
			 0.583664 -0.169305  0.794149
			 0.840271 -0.306814  0.447001
			 0.869572 -0.361077  0.336849
			 0.952632 -0.096148  0.288527
			 0.963952 -0.167179  0.206999
			 0.954433 -0.257968  0.150032
			 0.919391 -0.377885  0.109195
			 0.551811 -0.069228 -0.831091
			 0.385605 -0.146219 -0.911004
			 0.703793 -0.077147 -0.706204
			 0.418950 -0.105479 -0.901862
			 0.449736 -0.160884 -0.878552
			 0.987108 -0.102740 -0.122731
			 0.974521 -0.224240  0.004978
			 0.788507 -0.136020 -0.599796
			 0.643278 -0.083565 -0.761059
			-0.247281 -0.037964  0.968200
			-0.464733 -0.002701  0.885447
			-0.480869 -0.019516  0.876575
			 0.059444 -0.054090  0.996765
			-0.617654 -0.010008  0.786386
			-0.688127  0.008013  0.725546
			-0.638051 -0.018359  0.769775
			-0.678234 -0.016758  0.734655
			-0.787153  0.010017  0.616676
			-0.532735 -0.005593 -0.846264
			-0.397342 -0.051230 -0.916239
			-0.033419 -0.078561 -0.996349
			-0.816573  0.003299  0.577233
			-0.843062 -0.101206 -0.528209
			-0.983548 -0.051453 -0.173166
			-0.997800 -0.043155  0.050334
			-0.978461 -0.091478 -0.185055
			-0.991043 -0.022365  0.131656
			-0.947062 -0.037873  0.318811
			-0.993309 -0.105978 -0.045884
			-0.972436 -0.052003  0.227299
			-0.866236 -0.037369  0.498236
			-0.915956 -0.044822  0.398768
			-0.442999 -0.068130 -0.893930
			-0.090896 -0.098211 -0.991006
			-0.293596 -0.153869 -0.943465
			 0.035920 -0.069300 -0.996949
			 0.198917 -0.085278 -0.976299
			 0.440183 -0.125166 -0.889141
			 0.492915 -0.158274 -0.855561
			 0.406386 -0.136800 -0.903403
			 0.002560 -0.141658 -0.989912
			 0.023091 -0.143761 -0.989343
			 0.306971 -0.070690  0.949090
			-0.073480 -0.043033  0.996368
			 0.078276 -0.026336  0.996584
			 0.458284 -0.129290  0.879352
			 0.423073 -0.217228  0.879671
			 0.498813 -0.157386  0.852300
			 0.671413 -0.303391  0.676135
			 0.558536 -0.257851  0.788385
			 0.797072 -0.328896  0.506461
			 0.739238 -0.307949  0.598912
			 0.848564 -0.375890  0.372350
			 0.835804 -0.368433  0.407048
			 0.839735 -0.472682  0.267238
			 0.943225 -0.315418 -0.104111
			 0.886111 -0.413025 -0.210279
			 0.870067 -0.489189  0.060632
			 0.270270 -0.144029 -0.951951
			 0.488059 -0.168406 -0.856410
			 0.420747 -0.218914 -0.880368
			 0.854485 -0.244118 -0.458543
			 0.583322 -0.177337 -0.792646
			 0.651003 -0.230525 -0.723224
			-0.399833 -0.026501  0.916205
			-0.490700 -0.010694  0.871263
			-0.603813 -0.026168  0.796697
			-0.707130 -0.006897  0.707050
			-0.830418 -0.024543  0.556600
			-0.727449 -0.021401  0.685828
			-0.774305 -0.022367  0.632417
			-0.700009 -0.043840  0.712787
			-0.881721 -0.144764 -0.449012
			-0.588826 -0.210636 -0.780331
			-0.326070 -0.209670 -0.921801
			-0.954141 -0.038995  0.296808
			-0.965901 -0.102444  0.237781
			-0.975120 -0.197647  0.100380
			-0.952461 -0.224494 -0.205964
			-0.770100 -0.242498 -0.590034
			-0.828207 -0.071835  0.555799
			-0.912837 -0.132105  0.386364
			-0.025125 -0.095224 -0.995139
			 0.121110 -0.138193 -0.982973
			 0.040296 -0.137248 -0.989717
			 0.202376 -0.102228 -0.973958
			 0.023209 -0.193826 -0.980761
			 0.005209 -0.171088 -0.985242
			 0.024612 -0.159971 -0.986815
			 0.342069 -0.066322  0.937331
			 0.080311  0.021897  0.996529
			-0.325581  0.036242  0.944819
			-0.209266  0.029415  0.977416
			 0.386404 -0.179006  0.904792
			 0.340177 -0.091883  0.935862
			 0.629692 -0.287050  0.721865
			 0.709204 -0.311354  0.632526
			 0.474995 -0.162063  0.864937
			 0.784370 -0.310066  0.537236
			 0.823939 -0.312770  0.472547
			 0.816958 -0.361544  0.449294
			 0.831341 -0.362281  0.421454
			 0.795428 -0.429097  0.427983
			 0.826942 -0.548787  0.122471
			 0.812049 -0.485268  0.324179
			 0.813687 -0.321066 -0.484594
			 0.572969 -0.306216 -0.760222
			 0.824148 -0.537783 -0.177678
			 0.689785 -0.523358 -0.500293
			 0.237555 -0.238659 -0.941599
			 0.581340 -0.254172 -0.772943
			-0.586019 -0.020376  0.810041
			-0.479421  0.014925  0.877458
			-0.761405 -0.050985  0.646269
			-0.655828 -0.042483  0.753714
			-0.770172 -0.096678  0.630467
			-0.725594 -0.092819  0.681834
			-0.303639 -0.199693 -0.931625
			-0.299471 -0.321104 -0.898448
			-0.109894 -0.268261 -0.957058
			-0.959523 -0.141669  0.243405
			-0.937891 -0.278821 -0.206443
			-0.965863 -0.257077  0.031926
			-0.955978 -0.204314  0.210623
			-0.951597 -0.155281  0.265236
			-0.930256 -0.178842  0.320373
			-0.699941 -0.343184 -0.626344
			-0.375577 -0.483382 -0.790749
			-0.025597 -0.285156 -0.958139
			-0.304288 -0.167064 -0.937816
			-0.758529 -0.114071  0.641578
			-0.768527 -0.150537  0.621856
			-0.864845 -0.197731  0.461461
			 0.033430 -0.171035 -0.984698
			 0.049154 -0.195510 -0.979469
			 0.044508 -0.202373 -0.978297
			 0.117119 -0.247098 -0.961886
			 0.018891 -0.183252 -0.982885
			 0.244266  0.055656  0.968110
			 0.045148  0.166959  0.984930
			-0.135590  0.073468  0.988037
			-0.112226  0.136258  0.984296
			-0.326828  0.022267  0.944822
			 0.411365  0.066996  0.909005
			 0.615791 -0.245226  0.748776
			 0.731677 -0.283265  0.620007
			 0.498538 -0.117973  0.858803
			 0.796063 -0.166384  0.581893
			 0.872567 -0.221998  0.435136
			 0.842630 -0.346212  0.412446
			 0.893469 -0.442516  0.076761
			 0.869324 -0.476834 -0.130021
			 0.275778 -0.228614 -0.933639
			 0.323019 -0.478464 -0.816536
			 0.195836 -0.350814 -0.915739
			 0.499090 -0.542269 -0.675910
			 0.544308 -0.579033 -0.607000
			 0.088776 -0.209429 -0.973785
			 0.134265 -0.156071 -0.978578
			-0.614969 -0.034601  0.787791
			-0.579580 -0.007791  0.814878
			-0.541244  0.001238  0.840865
			-0.449055  0.033117  0.892890