<?xml version="1.0"?>
<VTKFile type="PolyData" version="0.1" byte_order="LittleEndian" compressor="vtkZLibDataCompressor">
	<PolyData>
		<Piece NumberOfPoints="433" NumberOfVerts="0" NumberOfLines="0" NumberOfStrips="0" NumberOfPolys="900">
		<PointData Normals="Normals">
		<DataArray type="Float32" Name="Normals" NumberOfComponents="3" format="ascii">
			-0.327564 -0.944732  0.013551
			-0.527407 -0.842123  0.112563
			-0.143251 -0.798899 -0.584156
			-0.071973 -0.991636 -0.107133
			-0.207160 -0.572283  0.793459
			-0.282851 -0.699113 -0.656686
			-0.663959 -0.729673 -0.163511
			-0.168650 -0.454390  0.874693
			-0.476465 -0.557433  0.679890
			 0.102845 -0.831216 -0.546354
			 0.055119 -0.682905 -0.728425
			-0.122712 -0.755668  0.643356
			 0.187872 -0.927126  0.324256
			-0.082509 -0.192939  0.977736
			-0.144330 -0.191844  0.970755
			-0.047658 -0.393799  0.917960
			-0.321936 -0.638498 -0.699055
			 0.034686 -0.437407 -0.898594
			-0.760371 -0.543765  0.355185
			-0.659782 -0.566688 -0.493510
			-0.426453 -0.321414  0.845477
			 0.418322 -0.822668 -0.384999
			 0.205200 -0.674750 -0.708947
			 0.236210 -0.421716 -0.875420
			 0.186004 -0.513312  0.837803
			 0.490902 -0.796531  0.352922
			 0.007980 -0.268520  0.963241
			-0.012930 -0.148412  0.988841
			-0.012905 -0.083664  0.996410
			 0.290888 -0.398274  0.869921
			-0.003578 -0.181280  0.983425
			-0.393485 -0.034250  0.918693
			-0.493547 -0.189832  0.848749
			-0.149166 -0.163642  0.975177
			-0.338998 -0.335166 -0.879059
			 0.141969 -0.298140 -0.943905
			-0.012456 -0.219867 -0.975450
			-0.897019 -0.317784  0.307196
			-0.809495 -0.493195 -0.318554
			-0.656053 -0.334730 -0.676425
			-0.891254 -0.285273 -0.352541
			 0.429778 -0.526375 -0.733635
			 0.672270 -0.565631 -0.477614
			 0.629746 -0.723834  0.281929
			 0.318939 -0.209202 -0.924399
			 0.511359 -0.288730 -0.809411
			 0.175120 -0.152859  0.972608
			 0.183472 -0.085740  0.979279
			 0.105325 -0.044680  0.993434
			 0.301843 -0.121960  0.945524
			 0.134009  0.043038  0.990045
			 0.786044 -0.612781  0.081452
			 0.518246 -0.289225  0.804841
			 0.876273 -0.393965  0.277376
			-0.427428 -0.099600  0.898546
			-0.705275  0.223309  0.672844
			-0.641322  0.054717  0.765318
			-0.614686 -0.033516  0.788060
			 0.042389 -0.141882  0.988976
			-0.159564 -0.105441  0.981540
			-0.130003 -0.159618 -0.978581
			-0.267758 -0.233142 -0.934853
			 0.136319 -0.123474 -0.982940
			 0.005196 -0.081122 -0.996691
			-0.939281 -0.195824  0.281787
			-0.813573 -0.264222 -0.517963
			-0.889081 -0.190576 -0.416192
			-0.993921  0.069582  0.085324
			-0.992933  0.015860 -0.117614
			 0.835260 -0.318641 -0.448118
			 0.504618 -0.069266 -0.860560
			 0.652307 -0.149837 -0.742997
			 0.311276  0.000916 -0.950319
			 0.177806 -0.120415  0.976671
			 0.256493 -0.041944  0.965635
			 0.587954  0.001651  0.808893
			 0.157383  0.101588  0.982299
			 0.349615 -0.110681  0.930333
			 0.439403 -0.107643  0.891817
			 0.371537 -0.124287  0.920061
			 0.968884 -0.232943 -0.083675
			 0.935962 -0.132046  0.326404
			-0.512135 -0.125678  0.849661
			-0.761226  0.254895  0.596292
			-0.889082  0.167225  0.426109
			-0.883322  0.169118  0.437197
			-0.826123  0.003639  0.563479
			-0.871850  0.129564  0.472324
			-0.195988 -0.076598  0.977610
			-0.017535 -0.094973  0.995325
			 0.001479  0.001349 -0.999998
			-0.374674 -0.310191 -0.873728
			 0.164557  0.076489 -0.983397
			-0.995385 -0.038197 -0.088036
			-0.972563  0.069189  0.222115
			-0.654669 -0.093616 -0.750096
			-0.991765  0.127819 -0.008075
			 0.930912 -0.198444 -0.306630
			 0.564177 -0.029175 -0.825138
			 0.361860  0.128946 -0.923272
			 0.737896 -0.131515 -0.661977
			 0.082576 -0.096038  0.991946
			 0.371071  0.061638  0.926557
			 0.437061 -0.041576  0.898470
			 0.786579  0.023834  0.617029
			 0.713498 -0.003801  0.700647
			 0.669298 -0.080710  0.738597
			 0.385762 -0.114850  0.915422
			 0.987934 -0.111628 -0.107355
			 0.839379  0.060414 -0.540178
			-0.606093 -0.038468  0.794463
			-0.790607 -0.284162  0.542395
			-0.353685 -0.061345  0.933351
			-0.867590 -0.132759  0.479231
			-0.142944 -0.085648  0.986018
			-0.901569 -0.074041  0.426253
			-0.870202 -0.077068  0.486629
			-0.909042  0.097636  0.405104
			 0.208325  0.166594 -0.963767
			-0.236347  0.200210 -0.950819
			 0.097915  0.238382 -0.966223
			-0.666843  0.339070 -0.663590
			-0.836142  0.100789 -0.539173
			-0.929313  0.355048 -0.101574
			 0.537341  0.046296 -0.842094
			 0.223644  0.234344 -0.946079
			 0.247423  0.274277 -0.929276
			 0.544961  0.155443 -0.823926
			 0.413488  0.318107 -0.853132
			-0.228537 -0.064762  0.971379
			-0.227602 -0.048270  0.972557
			-0.038381 -0.105094  0.993721
			 0.946865  0.186139  0.262297
			 0.980778  0.111580  0.160074
			 0.962153  0.062854  0.265162
			 0.964967  0.211124  0.155774
			 0.974234  0.222506  0.036872
			 0.907260 -0.026824  0.419714
			 0.796771 -0.124162  0.591387
			-0.011728 -0.203110  0.979086
			 0.441146 -0.214025  0.871541
			 0.854615  0.200852 -0.478843
			-0.348888 -0.064925  0.934913
			-0.409768 -0.054071  0.910586
			-0.969687  0.004146  0.244316
			-0.471472 -0.070278  0.879076
			-0.913230 -0.008835  0.407349
			-0.692147 -0.056554  0.719537
			-0.930327  0.175267 -0.322138
			-0.826637  0.483045 -0.288687
			 0.238691  0.195211 -0.951272
			-0.161011  0.509604 -0.845210
			 0.113687  0.170635 -0.978754
			-0.065775  0.424861 -0.902866
			-0.497088  0.650423 -0.574328
			 0.329520  0.240918 -0.912894
			 0.813244  0.293958 -0.502219
			 0.704022  0.395676 -0.589741
			 0.397059  0.495939 -0.772262
			-0.259211 -0.151775  0.953821
			 0.974660  0.102685 -0.198730
			 0.787251  0.341353 -0.513532
			 0.993419  0.004816  0.114434
			 0.992810 -0.115512  0.031380
			 0.847145 -0.161292  0.506290
			 0.995359 -0.035952  0.089264
			-0.330254 -0.241980  0.912347
			-0.115563 -0.337463  0.934218
			 0.127414 -0.249747  0.959892
			 0.264983 -0.298524  0.916879
			 0.722753 -0.388490  0.571580
			 0.474721 -0.282973  0.833407
			-0.835266  0.023342 -0.549350
			-0.999821 -0.018553  0.003796
			-0.901313 -0.065765 -0.428147
			-0.702633 -0.111913  0.702697
			-0.467455 -0.162086  0.869030
			-0.970184  0.040599  0.238946
			-0.681429 -0.077256  0.727795
			-0.987834  0.094943 -0.123163
			-0.693286  0.262150 -0.671291
			-0.684770  0.161205 -0.710706
			-0.351389  0.399892 -0.846530
			 0.305767  0.016813 -0.951958
			-0.330589  0.091050 -0.939373
			 0.101619 -0.032306 -0.994299
			 0.313922  0.046847 -0.948292
			 0.591072 -0.033557 -0.805921
			 0.898815 -0.037079 -0.436758
			 0.960656 -0.085716 -0.264183
			 0.920179 -0.100412 -0.378402
			 0.945985 -0.296148  0.131940
			 0.676456 -0.546650  0.493538
			-0.540964 -0.274786  0.794890
			-0.399469 -0.409626  0.820141
			-0.278740 -0.460685  0.842659
			 0.138895 -0.443352  0.885521
			-0.007996 -0.481435  0.876445
			 0.398353 -0.464501  0.790920
			 0.265395 -0.440001  0.857884
			 0.882726 -0.469541 -0.018088
			 0.772259 -0.541314  0.332560
			-0.449803 -0.108883 -0.886466
			-0.942250 -0.080660 -0.325051
			-0.285316 -0.113536 -0.951685
			-0.802339 -0.270252  0.532180
			-0.657652 -0.201156  0.725968
			-0.877946 -0.234424  0.417440
			 0.051137 -0.132560 -0.989855
			 0.032095 -0.099659 -0.994504
			 0.238520 -0.119916 -0.963706
			 0.767145 -0.094828 -0.634426
			 0.798238 -0.108162 -0.592551
			 0.684834 -0.103907 -0.721253
			 0.549570 -0.162811 -0.819430
			 0.886774 -0.206778 -0.413369
			 0.379769 -0.714012  0.588186
			 0.700774 -0.711831  0.047028
			-0.466423 -0.449101  0.762075
			-0.621332 -0.400389  0.673524
			-0.423493 -0.515382  0.745007
			-0.355565 -0.529679  0.770074
			-0.291826 -0.422637  0.858030
			-0.212218 -0.510456  0.833306
			-0.146080 -0.393118  0.907810
			 0.159342 -0.532781  0.831116
			 0.017884 -0.539231  0.841968
			 0.227991 -0.551316  0.802540
			 0.478107 -0.532174  0.698716
			 0.278235 -0.575390  0.769098
			 0.785044 -0.349877 -0.511167
			 0.779267 -0.505207 -0.370823
			-0.963645 -0.252310  0.087909
			-0.858162 -0.083900 -0.506477
			-0.636266 -0.104077 -0.764417
			-0.329971 -0.050538 -0.942637
			-0.887043 -0.379166  0.263417
			-0.769467 -0.434162  0.468427
			 0.146787 -0.106195 -0.983451
			-0.065292 -0.010423 -0.997812
			 0.319725 -0.093457 -0.942890
			 0.595762 -0.299384 -0.745276
			 0.328787 -0.595121  0.733301
			 0.522896 -0.627694  0.576697
			 0.512210 -0.852165 -0.107028
			 0.688509 -0.720201  0.085236
			 0.658698 -0.572779 -0.487895
			-0.459834 -0.472766  0.751695
			-0.617358 -0.499217  0.607989
			-0.653441 -0.521139  0.549025
			-0.622120 -0.419412  0.661105
			-0.382540 -0.496259  0.779352
			-0.280579 -0.421005  0.862572
			-0.189821 -0.211467  0.958775
			-0.235695 -0.212923  0.948215
			-0.181130 -0.037888  0.982729
			 0.228528 -0.345881  0.910022
			 0.249904 -0.133175  0.959069
			 0.123305 -0.000501  0.992369
			 0.271508 -0.492146  0.827089
			 0.250177 -0.400714  0.881385
			 0.334805 -0.420417  0.843300
			 0.437380 -0.408224  0.801281
			-0.927289 -0.359842 -0.103193
			-0.817830 -0.177524 -0.547393
			-0.088809 -0.031564 -0.995548
			-0.366387 -0.111969 -0.923701
			-0.848168 -0.515053  0.123822
			-0.758570 -0.618011  0.206483
			 0.166424  0.022558 -0.985796
			-0.129933 -0.029650 -0.991079
			 0.015609  0.010337 -0.999825
			 0.007093  0.095956 -0.995360
			-0.004208  0.073463 -0.997289
			 0.590304 -0.306782 -0.746610
			 0.402703 -0.123400 -0.906975
			 0.658862 -0.397250  0.638822
			 0.718248 -0.113598  0.686451
			 0.925682 -0.294615  0.237308
			 0.605876 -0.492284 -0.624957
			 0.869509 -0.291747 -0.398545
			 0.609091 -0.163534 -0.776057
			-0.541481 -0.371574  0.754143
			-0.637374 -0.244494  0.730737
			-0.679057 -0.073056  0.730441
			-0.563898 -0.484761  0.668600
			-0.733473 -0.413952  0.539130
			-0.696893 -0.573647  0.430429
			-0.743843 -0.182664  0.642909
			-0.766430  0.027140  0.641754
			-0.456021 -0.367734  0.810442
			-0.328135 -0.242395  0.913002
			-0.195411 -0.113530  0.974128
			-0.087410  0.188276  0.978219
			 0.101219  0.342945  0.933886
			 0.459565 -0.164314  0.872812
			 0.281807 -0.105912  0.953608
			 0.419018  0.437574  0.795584
			 0.653288 -0.097545  0.750799
			-0.828644 -0.479552 -0.288756
			-0.739289 -0.300016 -0.602862
			-0.322593 -0.170431 -0.931068
			-0.046460 -0.062641 -0.996954
			-0.708626 -0.534552 -0.460546
			-0.860256 -0.509321 -0.023491
			-0.690669 -0.562917 -0.453983
			 0.059625  0.126636 -0.990156
			 0.246162 -0.034091 -0.968629
			 0.127176  0.099276 -0.986900
			 0.086267 -0.169717 -0.981710
			 0.158605  0.102843 -0.981971
			 0.410101 -0.154172 -0.898915
			 0.491918 -0.090061 -0.865971
			 0.936921  0.034056  0.347878
			 0.848605  0.278070  0.450052
			 0.945461  0.294875  0.138394
			 0.987134  0.031460 -0.156770
			 0.775879  0.023836 -0.630432
			 0.592784  0.317878 -0.739974
			 0.564231  0.066896 -0.822902
			-0.581032 -0.060644  0.811618
			-0.741407  0.106413  0.662565
			-0.697317  0.346903  0.627222
			-0.674976  0.649592  0.349911
			-0.849503 -0.080514  0.521405
			-0.848605 -0.411817  0.332079
			-0.896163  0.207733  0.392096
			-0.896707 -0.168605  0.409254
			-0.889844  0.220294  0.399561
			-0.764721  0.480999  0.428768
			-0.399958  0.049055  0.915220
			-0.206005  0.221194  0.953224
			 0.145063  0.626507  0.765798
			 0.164046  0.599823  0.783135
			 0.453398  0.805466  0.381647
			 0.481963  0.211868  0.850190
			 0.628224  0.587968  0.509537
			 0.797768  0.337555  0.499622
			 0.533180  0.835145  0.135100
			 0.513923  0.436486  0.738487
			-0.612237 -0.329386 -0.718798
			-0.397773 -0.416268 -0.817617
			-0.228972 -0.172524 -0.958023
			-0.472303 -0.404577 -0.783101
			-0.307290 -0.238596 -0.921219
			-0.975294 -0.220212 -0.017585
			-0.836254 -0.016037 -0.548108
			-0.636639 -0.336051 -0.694089
			 0.127977  0.208377 -0.969639
			 0.180566  0.120441 -0.976161
			 0.324615 -0.010523 -0.945788
			 0.092741  0.223617 -0.970255
			-0.278389 -0.187339 -0.942021
			 0.133236  0.051817 -0.989729
			 0.042991 -0.402276 -0.914508
			-0.016579 -0.122825 -0.992290
			 0.244595  0.270129 -0.931238
			 0.442433  0.214121 -0.870864
			 0.906991  0.321696 -0.271809
			 0.728565  0.676349  0.108377
			 0.512704  0.857716  0.038181
			 0.664479  0.518937 -0.537748
			 0.808641  0.532622 -0.249828
			 0.690036  0.385626 -0.612489
			 0.593826  0.549324 -0.587889
			 0.555575  0.458347 -0.693725
			-0.479220  0.465643  0.743993
			-0.471868  0.867980  0.154762
			-0.381946  0.921974  0.063891
			-0.077969  0.983888 -0.160886
			-0.117008  0.927491 -0.355062
			-0.807061  0.515736  0.287523
			-0.990613  0.046795  0.128438
			-0.708885  0.701111  0.076971
			-0.877631  0.458034  0.141310
			 0.022657  0.890303  0.454805
			 0.416387  0.909088  0.013483
			 0.314092  0.858966 -0.404381
			 0.356187  0.934192  0.020399
			 0.246536  0.950542 -0.188919
			 0.271670  0.962361  0.007580
			-0.399825 -0.038700 -0.915774
			-0.132593  0.032653 -0.990633
			-0.926143  0.336187 -0.170990
			-0.683222  0.335199 -0.648729
			-0.361841  0.329843 -0.871937
			 0.088738  0.334873 -0.938075
			 0.193376  0.289397 -0.937473
			 0.246947  0.307680 -0.918886
			 0.264706  0.300102 -0.916444
			 0.492053  0.413459 -0.766118
			 0.088618  0.366827 -0.926059
			 0.111489  0.433431 -0.894264
			 0.506406  0.836892 -0.207763
			 0.350316  0.932092 -0.092107
			 0.252219  0.966546  0.046630
			 0.626417  0.646389 -0.435640
			-0.193375  0.979961  0.047785
			-0.001234  0.903615 -0.428344
			-0.252419  0.967356 -0.022528
			 0.066731  0.997615 -0.017618
			 0.082867  0.958808 -0.271701
			 0.142339  0.873916 -0.464770
			-0.415511  0.840308 -0.348186
			-0.688994  0.623243 -0.369939
			 0.217742  0.878746 -0.424729
			 0.182801  0.810041 -0.557151
			 0.010336  0.988510  0.150801
			 0.156164  0.980860  0.116302
			 0.512276  0.857721  0.043451
			 0.189582  0.832219  0.521028
			-0.124538  0.283910 -0.950729
			-0.058537  0.550789 -0.832589
			-0.252194  0.714716 -0.652365
			-0.164396  0.628875 -0.759928
			-0.175994  0.936707 -0.302665
			 0.048384  0.607409 -0.792915
			-0.097930  0.584545 -0.805430
			 0.255244  0.646691 -0.718778
			 0.408777  0.690710 -0.596507
			 0.294824  0.737154 -0.608015
			 0.557274  0.515588 -0.650856
			-0.226133  0.899589 -0.373636
			 0.519511  0.854337  0.014746
			-0.121665  0.967262 -0.222713
			-0.135815  0.971626  0.193640
			-0.316337  0.711805 -0.627108
			-0.137293  0.988777  0.058906
			 0.242437  0.961645  0.128307
			 0.572256  0.818670  0.047975
			 0.368302  0.896122  0.247628
			-0.356194  0.929525 -0.095446
			 0.164965  0.918976 -0.358147
		</DataArray>
	</PointData>
	<Points>
		<DataArray type="Float32" NumberOfComponents="3" format="ascii">
			-0.000516 -0.018624 -0.001831
			-0.000976 -0.018407 -0.001843
			-0.000385 -0.018360 -0.002355
			-0.000031 -0.018737 -0.001892
			-0.000358 -0.018325 -0.001277
			-0.000783 -0.018021 -0.002613
			-0.001378 -0.018022 -0.001872
			-0.000592 -0.017871 -0.001104
			-0.001265 -0.017924 -0.001381
			 0.000304 -0.018387 -0.002188
			 0.000173 -0.018140 -0.002620
			 0.000121 -0.018601 -0.001384
			 0.000620 -0.018674 -0.001496
			 0.000150 -0.017111 -0.000827
			-0.000784 -0.016955 -0.000917
			 0.000110 -0.018018 -0.001057
			-0.000904 -0.017594 -0.003009
			-0.000372 -0.017358 -0.003136
			-0.001688 -0.017602 -0.001531
			-0.001543 -0.017720 -0.002301
			-0.001481 -0.017251 -0.001193
			 0.000987 -0.018515 -0.002043
			 0.000862 -0.018159 -0.002453
			 0.000757 -0.017591 -0.002856
			 0.000890 -0.018081 -0.001098
			 0.001135 -0.018449 -0.001550
			 0.000606 -0.017616 -0.000932
			 0.000192 -0.016534 -0.000763
			 0.000926 -0.016315 -0.000706
			 0.001592 -0.017301 -0.000878
			 0.001337 -0.016829 -0.000756
			-0.001227 -0.015485 -0.000922
			-0.001686 -0.016768 -0.001144
			-0.000247 -0.015711 -0.000595
			-0.001285 -0.016941 -0.003205
			-0.000064 -0.016902 -0.003249
			-0.000489 -0.016579 -0.003385
			-0.002094 -0.017031 -0.001644
			-0.001972 -0.017164 -0.002305
			-0.001765 -0.016517 -0.003024
			-0.002217 -0.016347 -0.002437
			 0.001417 -0.017789 -0.002469
			 0.001860 -0.017545 -0.002314
			 0.001513 -0.018090 -0.001390
			 0.000912 -0.016598 -0.003154
			 0.001509 -0.017108 -0.002765
			 0.000535 -0.014909 -0.000501
			 0.000792 -0.015382 -0.000624
			 0.001637 -0.016421 -0.000685
			 0.001073 -0.014618 -0.000636
			 0.001210 -0.015886 -0.000711
			 0.001951 -0.017722 -0.001658
			 0.001982 -0.016901 -0.000831
			 0.002261 -0.017232 -0.001490
			-0.000812 -0.013872 -0.000521
			-0.001905 -0.015296 -0.001277
			-0.001507 -0.014741 -0.001076
			-0.001836 -0.015809 -0.001148
			 0.000069 -0.014415 -0.000353
			-0.000136 -0.013930 -0.000307
			-0.001184 -0.016242 -0.003375
			-0.001360 -0.015680 -0.003435
			 0.000031 -0.016264 -0.003420
			-0.000409 -0.015898 -0.003462
			-0.002255 -0.016514 -0.001795
			-0.002178 -0.015669 -0.002969
			-0.002310 -0.015209 -0.003139
			-0.002337 -0.015989 -0.001957
			-0.002382 -0.015421 -0.002307
			 0.002177 -0.017047 -0.002143
			 0.001187 -0.016177 -0.003118
			 0.002001 -0.016534 -0.002537
			 0.001017 -0.015655 -0.003229
			 0.000695 -0.012660 -0.000235
			 0.001469 -0.014955 -0.000822
			 0.002156 -0.015984 -0.000842
			 0.001760 -0.015467 -0.000844
			 0.001371 -0.014052 -0.000644
			 0.001659 -0.012703 -0.000582
			 0.001274 -0.011755 -0.000280
			 0.002409 -0.016702 -0.001800
			 0.002529 -0.015442 -0.001316
			-0.000743 -0.012883 -0.000394
			-0.001885 -0.014795 -0.001402
			-0.002237 -0.015662 -0.001484
			-0.002269 -0.015111 -0.001777
			-0.001612 -0.013492 -0.001162
			-0.002001 -0.014214 -0.001768
			-0.000324 -0.013369 -0.000307
			 0.000315 -0.012161 -0.000148
			-0.001483 -0.014741 -0.003578
			-0.001800 -0.015320 -0.003478
			-0.000130 -0.015439 -0.003428
			-0.002444 -0.014792 -0.002873
			-0.002255 -0.014724 -0.002147
			-0.002136 -0.014684 -0.003444
			-0.002312 -0.013925 -0.002683
			 0.002485 -0.016213 -0.001913
			 0.001849 -0.015910 -0.002682
			 0.001324 -0.014368 -0.002947
			 0.002363 -0.015629 -0.002280
			 0.000890 -0.009958  0.000076
			 0.002055 -0.015070 -0.000920
			 0.001893 -0.014071 -0.000845
			 0.002607 -0.014955 -0.001428
			 0.001985 -0.013143 -0.000862
			 0.001812 -0.011784 -0.000596
			 0.001401 -0.009989 -0.000077
			 0.002716 -0.015310 -0.001911
			 0.002588 -0.014744 -0.002208
			-0.001238 -0.010885 -0.000590
			-0.001135 -0.012311 -0.000578
			-0.000512 -0.011551 -0.000240
			-0.001498 -0.011707 -0.000888
			 0.000108 -0.011674 -0.000109
			-0.001738 -0.012925 -0.001465
			-0.001886 -0.013285 -0.001791
			-0.002082 -0.013637 -0.002126
			-0.000300 -0.014503 -0.003341
			-0.001690 -0.014257 -0.003522
			-0.001186 -0.013881 -0.003446
			-0.002074 -0.013804 -0.003266
			-0.002334 -0.014255 -0.003191
			-0.002204 -0.013445 -0.002787
			 0.001963 -0.014617 -0.002637
			 0.000450 -0.013318 -0.002908
			 0.001138 -0.013447 -0.002787
			 0.002029 -0.013647 -0.002508
			 0.001830 -0.013156 -0.002490
			-0.000124 -0.010719 -0.000048
			-0.000049 -0.009808  0.000012
			 0.000719 -0.009022  0.000165
			 0.002523 -0.013863 -0.001470
			 0.002670 -0.014463 -0.001544
			 0.002112 -0.012180 -0.001039
			 0.002331 -0.013160 -0.001388
			 0.002240 -0.012592 -0.001306
			 0.001935 -0.011304 -0.000699
			 0.001898 -0.009512 -0.000377
			 0.000566 -0.007649  0.000376
			 0.001700 -0.008188  0.000040
			 0.002433 -0.013791 -0.002185
			-0.000680 -0.009203 -0.000169
			-0.000761 -0.010322 -0.000298
			-0.001630 -0.011160 -0.001112
			-0.000853 -0.008606 -0.000226
			-0.001588 -0.010270 -0.000959
			-0.001340 -0.009461 -0.000609
			-0.001758 -0.011914 -0.001728
			-0.001795 -0.012688 -0.002324
			-0.000240 -0.013190 -0.003019
			-0.001663 -0.013397 -0.003253
			-0.000190 -0.012305 -0.002850
			-0.000931 -0.013064 -0.003127
			-0.001913 -0.012999 -0.002855
			 0.001155 -0.012595 -0.002472
			 0.002248 -0.013285 -0.002227
			 0.002043 -0.012799 -0.002179
			 0.001819 -0.012334 -0.002047
			 0.000282 -0.008496  0.000189
			 0.002086 -0.011669 -0.001173
			 0.001937 -0.011973 -0.001711
			 0.001998 -0.010814 -0.000815
			 0.002052 -0.009876 -0.000851
			 0.002133 -0.008160 -0.000292
			 0.002227 -0.008571 -0.000567
			-0.000304 -0.006595  0.000391
			 0.000386 -0.006306  0.000702
			 0.001070 -0.007273  0.000451
			 0.001505 -0.006867  0.000458
			 0.002392 -0.007709 -0.000367
			 0.001846 -0.007310  0.000183
			-0.001535 -0.011342 -0.002234
			-0.001719 -0.010583 -0.001472
			-0.001517 -0.010843 -0.002359
			-0.001458 -0.008052 -0.000557
			-0.000702 -0.007827 -0.000045
			-0.001673 -0.009309 -0.001004
			-0.001806 -0.008780 -0.001161
			-0.001658 -0.010034 -0.001801
			-0.001561 -0.012231 -0.002404
			-0.001357 -0.011767 -0.002490
			-0.001187 -0.012631 -0.002858
			 0.000529 -0.011985 -0.002674
			-0.000723 -0.011780 -0.002780
			-0.000063 -0.010924 -0.002829
			 0.001003 -0.011640 -0.002467
			 0.001049 -0.011102 -0.002437
			 0.001840 -0.011063 -0.001557
			 0.002121 -0.009386 -0.000966
			 0.001857 -0.010114 -0.001610
			 0.002230 -0.008904 -0.001072
			 0.002699 -0.007266 -0.000431
			-0.001176 -0.006374  0.000032
			-0.000948 -0.005368  0.000570
			 0.000393 -0.005310  0.001136
			 0.001349 -0.006218  0.000761
			 0.001098 -0.005818  0.000994
			 0.002390 -0.006890  0.000078
			 0.002126 -0.006467  0.000385
			 0.002559 -0.007963 -0.001261
			 0.002769 -0.007550 -0.000911
			-0.001064 -0.011095 -0.002738
			-0.001568 -0.010324 -0.002276
			-0.000983 -0.010400 -0.002812
			-0.002194 -0.006857 -0.001134
			-0.001689 -0.007073 -0.000595
			-0.001843 -0.007878 -0.001004
			-0.000679 -0.009834 -0.002854
			-0.000304 -0.008757 -0.003007
			 0.000489 -0.010079 -0.002768
			 0.001597 -0.009948 -0.002089
			 0.001628 -0.010458 -0.001953
			 0.001140 -0.010225 -0.002475
			 0.001060 -0.009053 -0.002723
			 0.001874 -0.009614 -0.001736
			 0.003503 -0.006753 -0.000581
			 0.003103 -0.007220 -0.001211
			-0.001796 -0.005613 -0.000130
			-0.002001 -0.006104 -0.000542
			-0.001605 -0.005008  0.000405
			-0.000964 -0.004770  0.000929
			 0.000143 -0.004194  0.001702
			 0.000597 -0.004702  0.001608
			 0.000817 -0.004340  0.001885
			 0.001846 -0.005543  0.001009
			 0.001154 -0.005181  0.001349
			 0.002568 -0.005290  0.001012
			 0.002930 -0.006482 -0.000007
			 0.002869 -0.005706  0.000656
			 0.002156 -0.008494 -0.001904
			 0.002777 -0.007389 -0.001768
			-0.001987 -0.008183 -0.001540
			-0.001656 -0.009418 -0.002353
			-0.001308 -0.009822 -0.002785
			-0.001113 -0.009358 -0.002872
			-0.002354 -0.007110 -0.001656
			-0.002586 -0.006380 -0.001356
			 0.000443 -0.008504 -0.002997
			 0.000062 -0.007594 -0.003074
			 0.000981 -0.007867 -0.002968
			 0.001794 -0.007975 -0.002564
			 0.003383 -0.005829  0.000448
			 0.003985 -0.006358 -0.000389
			 0.003577 -0.006975 -0.001049
			 0.004052 -0.006708 -0.000882
			 0.003257 -0.006777 -0.001759
			-0.002066 -0.004508  0.000529
			-0.002421 -0.005562 -0.000597
			-0.002809 -0.005819 -0.001188
			-0.002477 -0.004669  0.000098
			-0.001204 -0.004296  0.001149
			-0.000546 -0.004067  0.001584
			-0.000085 -0.003734  0.001853
			 0.000598 -0.003869  0.001994
			 0.000403 -0.003373  0.001999
			 0.001538 -0.004434  0.001860
			 0.001303 -0.003981  0.002039
			 0.001138 -0.003503  0.002098
			 0.002312 -0.004890  0.001403
			 0.002046 -0.004468  0.001720
			 0.002924 -0.004913  0.001170
			 0.003407 -0.005343  0.000766
			-0.002115 -0.007728 -0.001933
			-0.001677 -0.008912 -0.002487
			-0.000727 -0.008093 -0.002989
			-0.001028 -0.008609 -0.002937
			-0.002660 -0.006598 -0.001859
			-0.003147 -0.006023 -0.002003
			 0.000812 -0.007243 -0.003031
			-0.000389 -0.007084 -0.002993
			-0.000581 -0.006585 -0.003001
			 0.000365 -0.006728 -0.002971
			 0.000162 -0.006241 -0.002929
			 0.002582 -0.007270 -0.002239
			 0.002175 -0.007082 -0.002527
			 0.003924 -0.005914  0.000122
			 0.003810 -0.005309  0.000428
			 0.004306 -0.006036 -0.000628
			 0.003733 -0.006477 -0.001585
			 0.004171 -0.006310 -0.001281
			 0.003395 -0.005990 -0.002071
			-0.001860 -0.004159  0.000869
			-0.002281 -0.004032  0.000622
			-0.002060 -0.003669  0.000896
			-0.002868 -0.004982 -0.000501
			-0.003286 -0.004991 -0.000829
			-0.003226 -0.005445 -0.001342
			-0.003040 -0.004183 -0.000174
			-0.002677 -0.003882  0.000262
			-0.001438 -0.003867  0.001308
			-0.000770 -0.003602  0.001718
			-0.000290 -0.003249  0.001896
			 0.000223 -0.002862  0.001931
			 0.001169 -0.002973  0.001982
			 0.002592 -0.004047  0.001608
			 0.001805 -0.003965  0.001956
			 0.001886 -0.003278  0.001881
			 0.003251 -0.004476  0.001110
			-0.002410 -0.006980 -0.002312
			-0.001778 -0.008129 -0.002590
			-0.001415 -0.007901 -0.002902
			-0.001126 -0.007454 -0.002970
			-0.002832 -0.006371 -0.002527
			-0.003567 -0.005626 -0.002127
			-0.003261 -0.005809 -0.002529
			 0.000441 -0.005816 -0.002911
			 0.001556 -0.006481 -0.002769
			 0.001140 -0.005935 -0.002840
			-0.001427 -0.005642 -0.003155
			-0.000239 -0.005262 -0.002874
			 0.002580 -0.006232 -0.002492
			 0.002978 -0.005860 -0.002335
			 0.004256 -0.005228 -0.000113
			 0.003660 -0.004388  0.000561
			 0.004188 -0.004711 -0.000258
			 0.004368 -0.005527 -0.000808
			 0.004036 -0.005751 -0.001547
			 0.003659 -0.005161 -0.001805
			 0.003228 -0.005448 -0.002187
			-0.001635 -0.003374  0.001320
			-0.002397 -0.003530  0.000550
			-0.001768 -0.002783  0.001066
			-0.002143 -0.002786  0.000528
			-0.003222 -0.004537 -0.000507
			-0.003626 -0.005125 -0.001598
			-0.003417 -0.003940 -0.000880
			-0.003661 -0.004745 -0.001245
			-0.003025 -0.003644 -0.000293
			-0.002580 -0.003133  0.000134
			-0.000964 -0.003105  0.001716
			-0.000469 -0.002737  0.001827
			 0.000721 -0.002761  0.001910
			 0.000322 -0.002343  0.001689
			 0.001500 -0.002707  0.001669
			 0.002387 -0.003581  0.001727
			 0.002912 -0.003685  0.001394
			 0.003339 -0.003990  0.000999
			 0.002479 -0.003189  0.001378
			 0.001800 -0.002911  0.001283
			-0.002142 -0.007150 -0.002721
			-0.002462 -0.006354 -0.002876
			-0.001639 -0.007393 -0.002934
			-0.002935 -0.005618 -0.002857
			-0.002387 -0.005597 -0.003162
			-0.003767 -0.005087 -0.002077
			-0.003635 -0.004851 -0.002620
			-0.003442 -0.005324 -0.002707
			 0.000043 -0.004417 -0.002677
			 0.001897 -0.005332 -0.002718
			 0.002337 -0.005680 -0.002669
			 0.001206 -0.005032 -0.002743
			-0.001805 -0.006775 -0.003013
			-0.001586 -0.004973 -0.003247
			-0.001944 -0.005909 -0.003110
			-0.001869 -0.005402 -0.003245
			-0.000881 -0.004251 -0.002810
			 0.002807 -0.005339 -0.002439
			 0.004233 -0.004979 -0.000962
			 0.003847 -0.004255 -0.000035
			 0.003349 -0.003822  0.000366
			 0.003623 -0.004290 -0.001208
			 0.003993 -0.004376 -0.000688
			 0.003819 -0.004803 -0.001477
			 0.002987 -0.004096 -0.001553
			 0.003024 -0.004562 -0.001955
			-0.001108 -0.002545  0.001496
			-0.001430 -0.002380  0.001002
			-0.002435 -0.002845 -0.000444
			-0.002013 -0.002764 -0.000102
			-0.001352 -0.002528  0.000327
			-0.002923 -0.003156 -0.000566
			-0.003808 -0.004584 -0.001772
			-0.003058 -0.003189 -0.001107
			-0.003505 -0.003726 -0.001539
			-0.000120 -0.002100  0.001601
			 0.000867 -0.002449  0.001337
			 0.000322 -0.002925  0.000225
			 0.003044 -0.003616  0.000772
			 0.002622 -0.003719  0.000427
			 0.001305 -0.003336 -0.000051
			-0.003087 -0.004996 -0.003003
			-0.002316 -0.005073 -0.003270
			-0.003728 -0.004098 -0.001885
			-0.003414 -0.004379 -0.002748
			-0.002856 -0.004377 -0.003053
			-0.000850 -0.003386 -0.002555
			 0.000810 -0.003215 -0.002317
			 0.001704 -0.003829 -0.002250
			 0.002151 -0.004902 -0.002575
			 0.002374 -0.003977 -0.002052
			-0.001792 -0.004489 -0.003195
			-0.001564 -0.003962 -0.002879
			 0.003358 -0.003946 -0.000930
			 0.003249 -0.003792 -0.000320
			 0.002747 -0.003766 -0.000218
			 0.002567 -0.003641 -0.001654
			-0.000770 -0.002139  0.001211
			-0.000924 -0.002312  0.000696
			-0.002536 -0.002845 -0.001136
			-0.001807 -0.002910 -0.001189
			-0.000995 -0.002988 -0.000463
			-0.000377 -0.002774  0.000167
			-0.002924 -0.003092 -0.001722
			-0.003358 -0.003609 -0.002148
			 0.000225 -0.002353  0.000973
			-0.000207 -0.002463  0.000669
			-0.000246 -0.003031 -0.000602
			 0.000895 -0.003209 -0.000352
			 0.002298 -0.003292 -0.001353
			 0.000533 -0.002988 -0.000846
			-0.002275 -0.004332 -0.003124
			-0.002288 -0.003798 -0.002806
			-0.002812 -0.003393 -0.002416
			-0.001080 -0.002927 -0.002397
			-0.000728 -0.002565 -0.002191
			-0.000076 -0.002637 -0.002265
			-0.001817 -0.003589 -0.002651
			 0.000590 -0.002746 -0.002207
			 0.001503 -0.002924 -0.002025
			 0.001038 -0.002659 -0.001993
			 0.002160 -0.003502 -0.001962
			-0.001594 -0.002954 -0.002256
			 0.002879 -0.003720 -0.000843
			-0.002178 -0.002865 -0.001718
			-0.001304 -0.002916 -0.001288
			-0.002104 -0.003078 -0.002183
			-0.000183 -0.002396 -0.001803
			 0.000732 -0.002487 -0.001593
			 0.001901 -0.002935 -0.001608
			 0.001408 -0.002738 -0.001471
			-0.001162 -0.002678 -0.001875
			 0.000321 -0.002370 -0.001895
		</DataArray>
	</Points>
			<Polys>