<?xml version="1.0"?>
<VTKFile type="PolyData" version="0.1" byte_order="LittleEndian" compressor="vtkZLibDataCompressor">
	<PolyData>
		<Piece NumberOfPoints="1134" NumberOfVerts="0" NumberOfLines="0" NumberOfStrips="0" NumberOfPolys="2280">
		<PointData Normals="Normals">
		<DataArray type="Float32" Name="Normals" NumberOfComponents="3" format="ascii">
			-0.260010 -0.936152 -0.236674
			-0.315680 -0.830405 -0.459102
			 0.079880 -0.808000 -0.583743
			 0.309870 -0.840586 -0.444292
			 0.295086 -0.888560 -0.351264
			-0.103673 -0.958415 -0.265879
			-0.850575 -0.489640  0.191770
			-0.704555 -0.704664 -0.083974
			-0.611975 -0.788548 -0.060656
			-0.177127 -0.627223 -0.758431
			-0.723437 -0.564313 -0.397730
			 0.360378 -0.681576 -0.636853
			 0.153092 -0.664860 -0.731111
			 0.015755 -0.528277 -0.848926
			 0.402062 -0.778592 -0.481810
			 0.329503 -0.572687 -0.750638
			 0.182456 -0.975712 -0.121223
			 0.342057 -0.916549 -0.207209
			 0.416419 -0.905533 -0.081274
			-0.388518 -0.921392 -0.009516
			-0.908671 -0.412021  0.067496
			-0.817887 -0.557399  0.142714
			-0.909472 -0.193245  0.368127
			-0.940034 -0.256003  0.225385
			-0.850198 -0.315558  0.421409
			-0.927207 -0.237666  0.289488
			-0.418046 -0.361169 -0.833543
			-0.867622 -0.275289 -0.414063
			-0.961933 -0.266462 -0.060689
			 0.321516 -0.494881 -0.807292
			 0.258879 -0.322638 -0.910432
			-0.088607 -0.321754 -0.942668
			 0.280711 -0.836446 -0.470701
			 0.109296 -0.861630 -0.495630
			 0.102413 -0.278918 -0.954838
			 0.029034 -0.627211 -0.778308
			 0.300705 -0.206741 -0.931040
			 0.287042 -0.954237  0.083895
			-0.047751 -0.989033  0.139764
			 0.145566 -0.973835 -0.174517
			 0.234088 -0.968380  0.086277
			 0.373705 -0.926838  0.036272
			-0.626511 -0.735411  0.258177
			-0.915822 -0.132499  0.379096
			-0.946822 -0.109557  0.302530
			-0.734418 -0.624726  0.265230
			-0.808909 -0.389299  0.440582
			-0.959719 -0.111174  0.258031
			-0.984154 -0.114700  0.135224
			 0.012088 -0.150231 -0.988577
			-0.492389 -0.141215 -0.858843
			-0.852997 -0.171201 -0.493039
			-0.201111 -0.746833 -0.633873
			-0.149600 -0.987939  0.039949
			 0.035961 -0.491408 -0.870187
			 0.234791 -0.123577 -0.964159
			-0.060553 -0.366575 -0.928416
			-0.022094 -0.080466 -0.996513
			-0.119130 -0.112095 -0.986531
			 0.141832 -0.054044 -0.988414
			 0.265677 -0.067528 -0.961694
			 0.292520 -0.013897 -0.956159
			-0.094375 -0.967481  0.234679
			 0.232239 -0.907081  0.351098
			 0.027801 -0.998077  0.055408
			 0.151021 -0.889374  0.431516
			 0.351151 -0.893034  0.281394
			 0.011819 -0.976980  0.213001
			-0.930385 -0.134830  0.340887
			-0.963720 -0.107802  0.244176
			-0.592877 -0.569321  0.569535
			-0.307805 -0.884287  0.351130
			-0.826838 -0.268475  0.494227
			-0.617212 -0.503106  0.604924
			-0.319019 -0.727452  0.607487
			-0.867170 -0.153070  0.473905
			-0.944387 -0.192920  0.266299
			-0.848798 -0.113737  0.516339
			-0.933395 -0.148976  0.326467
			-0.963681 -0.060666 -0.260073
			-0.922665 -0.170718  0.345754
			-0.948465 -0.103347  0.299555
			-0.993820 -0.082630  0.074120
			 0.069008  0.040187 -0.996806
			-0.260123 -0.017653 -0.965414
			-0.728922 -0.031040 -0.683893
			-0.827555 -0.081376 -0.555456
			-0.214145 -0.521363 -0.826028
			-0.344264 -0.910984 -0.227135
			-0.304692 -0.874109 -0.378280
			-0.340371 -0.703745 -0.623611
			-0.323627 -0.559545 -0.763004
			 0.031443 -0.909464  0.414593
			-0.159428 -0.839349  0.519688
			-0.292943 -0.939497  0.177564
			-0.276594 -0.959134 -0.059644
			-0.281096 -0.355644 -0.891348
			-0.253054 -0.158281 -0.954417
			-0.099893 -0.001761 -0.994997
			 0.119845  0.227846 -0.966294
			 0.332190  0.037116 -0.942482
			 0.374153  0.197061 -0.906188
			 0.285092 -0.782077  0.554145
			 0.331960 -0.856659  0.394890
			 0.052313 -0.742024  0.668329
			 0.221451 -0.705358  0.673372
			 0.037410 -0.752660  0.657345
			-0.611825 -0.282820  0.738704
			-0.365283 -0.535931  0.761148
			-0.914400 -0.240282  0.325787
			-0.814136 -0.128193  0.566347
			-0.634525 -0.197992  0.747112
			-0.910432 -0.106418  0.399737
			-0.905948 -0.052479  0.420124
			-0.877626  0.019120 -0.478965
			-0.997968 -0.056247  0.029949
			-0.915682  0.126452 -0.381493
			-0.951638 -0.164188  0.259670
			 0.322895  0.180573 -0.929049
			-0.155693  0.057129 -0.986152
			 0.406095  0.190082 -0.893844
			-0.420838  0.075402 -0.903996
			-0.541453  0.154281 -0.826454
			-0.750548  0.104446 -0.652510
			-0.261431 -0.946330 -0.190036
			-0.365095 -0.745201 -0.558015
			-0.149304 -0.972301 -0.179828
			-0.078019 -0.926099 -0.369127
			-0.361281 -0.537851 -0.761704
			-0.251220 -0.928642  0.272968
			-0.222457 -0.825906  0.518066
			-0.157746 -0.723927  0.671600
			-0.021477 -0.894985  0.445579
			-0.193241 -0.679077  0.708175
			-0.142648 -0.654076  0.742857
			-0.028667 -0.676164  0.736193
			-0.223372 -0.972987  0.058312
			-0.364380 -0.104588 -0.925358
			-0.299118 -0.293775 -0.907868
			-0.327925  0.130225 -0.935685
			-0.158051  0.250770 -0.955057
			-0.102026  0.418618 -0.902413
			 0.094800  0.415070 -0.904837
			 0.378022  0.305961 -0.873778
			 0.438064  0.250984 -0.863196
			 0.281468 -0.630907  0.723002
			-0.052534 -0.495371  0.867092
			 0.111744 -0.630708  0.767933
			 0.195479 -0.485088  0.852336
			-0.258999 -0.309597  0.914915
			-0.934234 -0.161943  0.317774
			-0.678554 -0.179764  0.712214
			-0.811446  0.072649  0.579895
			-0.521359 -0.163739  0.837481
			-0.658586 -0.033221  0.751772
			-0.943332 -0.023362  0.331027
			-0.891108  0.048708  0.451169
			-0.980243 -0.042278  0.193225
			-0.997817  0.032886 -0.057274
			-0.749554  0.262058 -0.607860
			-0.989397  0.139704 -0.039708
			-0.951963  0.225707 -0.206936
			-0.839903  0.341543 -0.421797
			-0.952943 -0.143616  0.266972
			-0.047445  0.329854 -0.942839
			 0.325733  0.352322 -0.877364
			-0.497889  0.408301 -0.765113
			-0.213548 -0.673639 -0.707537
			-0.014809 -0.999323  0.033685
			 0.230175 -0.971550 -0.055775
			 0.233162 -0.888332 -0.395603
			 0.305943 -0.940762 -0.146171
			-0.208661 -0.436648 -0.875100
			-0.131105 -0.792844  0.595156
			-0.203612 -0.554738  0.806726
			-0.008210 -0.599731  0.800160
			 0.070931 -0.726827  0.683148
			 0.075865 -0.641900  0.763026
			 0.023066 -0.972788  0.230544
			 0.383660 -0.832553  0.399575
			 0.563269 -0.605684  0.562027
			 0.360967 -0.683674  0.634265
			-0.064440 -0.544958  0.835983
			-0.256199  0.103177 -0.961102
			-0.221624 -0.048706 -0.973915
			-0.342673  0.250264 -0.905507
			-0.162824 -0.138034 -0.976952
			 0.029368 -0.266349 -0.963429
			-0.073322 -0.177333 -0.981416
			-0.265553  0.390110 -0.881644
			-0.387472  0.380672 -0.839616
			 0.150801  0.369932 -0.916739
			-0.152346  0.413156 -0.897827
			 0.388872  0.184021 -0.902726
			 0.219562  0.200630 -0.954746
			 0.332236  0.331047 -0.883191
			 0.167412 -0.454400  0.874925
			 0.109481 -0.353876  0.928863
			-0.116097 -0.169800  0.978616
			-0.928131  0.084702  0.362490
			-0.470232  0.104594  0.876323
			-0.768310  0.112096  0.630186
			-0.809426  0.218742  0.544960
			-0.937313  0.172222  0.302960
			-0.380856  0.028077  0.924208
			-0.981655  0.142257  0.126949
			-0.964686  0.251245  0.079097
			-0.938835  0.317013 -0.134503
			-0.493002  0.487033 -0.720935
			-0.775746  0.487738 -0.400411
			-0.670750  0.528331 -0.520539
			-0.058562  0.491097 -0.869134
			 0.108197  0.423744 -0.899297
			-0.058077 -0.650690 -0.757119
			-0.006740 -0.437392 -0.899246
			 0.222279 -0.961042  0.164288
			 0.630183 -0.727951  0.270104
			 0.595781 -0.797730  0.093123
			 0.712822 -0.699008  0.057214
			 0.384789 -0.631901 -0.672785
			 0.808554 -0.514943 -0.284736
			-0.040521 -0.465208  0.884273
			 0.026637 -0.370970  0.928263
			 0.299633 -0.427113  0.853109
			 0.403990 -0.516756  0.754821
			 0.751603 -0.490570  0.440946
			 0.639566 -0.416051  0.646418
			 0.824062 -0.220932  0.521642
			 0.069855 -0.398391  0.914552
			-0.094358 -0.497046  0.862578
			-0.139295  0.215769 -0.966458
			-0.065818  0.040073 -0.997027
			-0.385671  0.452035 -0.804315
			-0.250487  0.361372 -0.898146
			 0.126805  0.008556 -0.991891
			 0.413979 -0.348742 -0.840833
			 0.289418 -0.111476 -0.950689
			-0.350666  0.363254 -0.863180
			 0.000000  0.000000  1.000000
			 0.038780  0.172968 -0.984164
			 0.240625  0.097126 -0.965746
			-0.187123  0.104334 -0.976780
			-0.271975  0.285988 -0.918825
			 0.192763  0.057525 -0.979558
			-0.094590  0.141211 -0.985450
			 0.039594  0.099949 -0.994204
			-0.325004  0.352752 -0.877461
			 0.053299 -0.259411  0.964295
			 0.007102 -0.177003  0.984185
			-0.104141 -0.030014  0.994109
			-0.635013  0.234286  0.736117
			-0.596258  0.203146  0.776665
			-0.251344  0.063350  0.965822
			-0.397310  0.179683  0.899922
			-0.101116 -0.078768  0.991752
			-0.832732  0.310727  0.458264
			-0.918338  0.259499  0.298859
			-0.950442  0.308738  0.036623
			-0.222804  0.558446 -0.799060
			-0.429976  0.456232 -0.779085
			-0.654078  0.418449 -0.630144
			-0.851412  0.422539 -0.310738
			-0.137928  0.428056 -0.893165
			 0.874835 -0.337319  0.347678
			 0.884402 -0.350445  0.308256
			 0.955201 -0.272747 -0.114894
			 0.902373 -0.262707  0.341626
			 0.920183 -0.271121 -0.282412
			 0.892458 -0.407560 -0.193427
			 0.996377 -0.073118  0.043437
			 0.031814 -0.242811  0.969552
			-0.089723 -0.390357  0.916281
			 0.263561 -0.198050  0.944093
			 0.566540 -0.128740  0.813915
			 0.451006 -0.117740  0.884721
			 0.694105 -0.135316  0.707041
			 0.568250 -0.354287  0.742680
			 0.737569 -0.233120  0.633756
			 0.912552 -0.187311  0.363544
			 0.830755 -0.008372  0.556575
			 0.924504 -0.036190  0.379450
			-0.048451 -0.285160  0.957254
			 0.084220  0.211081 -0.973834
			 0.026853  0.377061 -0.925799
			-0.394482  0.470167 -0.789510
			-0.334079  0.475317 -0.813919
			-0.174113  0.462411 -0.869402
			 0.635245  0.097339 -0.766152
			 0.325555  0.241664 -0.914118
			 0.650176 -0.102587 -0.752826
			-0.296554  0.286218 -0.911117
			-0.149196  0.109841 -0.982688
			-0.019846  0.018397 -0.999634
			 0.108188  0.011283 -0.994066
			 0.173336  0.005127 -0.984849
			 0.096112  0.019459 -0.995180
			-0.057458  0.040770 -0.997515
			-0.158008  0.104053 -0.981940
			-0.396178  0.195992 -0.897012
			-0.810510  0.286999 -0.510592
			-0.845204  0.184157  0.501714
			-0.423364  0.086094  0.901860
			-0.571612  0.036566  0.819708
			-0.796226  0.042714  0.603489
			-0.110496 -0.028791  0.993460
			-0.197440  0.005764  0.980298
			-0.309088  0.083032  0.947402
			 0.057758 -0.095057  0.993795
			-0.896474  0.242994  0.370525
			-0.940728  0.170593  0.293137
			-0.957225  0.285799 -0.045158
			-0.889263  0.319574 -0.327235
			 0.924934 -0.121074  0.360332
			 0.907835 -0.084610  0.410704
			 0.937721 -0.084343 -0.336993
			 0.983038 -0.056776  0.174395
			 0.336630 -0.052764  0.940158
			 0.561826 -0.023353  0.826926
			 0.788410 -0.011300  0.615047
			 0.701146 -0.019698  0.712746
			 0.894483 -0.004872  0.447075
			 0.933441 -0.044299  0.355985
			 0.007111  0.444962 -0.895521
			-0.088274  0.458608 -0.884244
			 0.247680  0.336623 -0.908482
			 0.346464  0.379455 -0.857891
			-0.259455  0.456748 -0.850919
			 0.673099  0.211968 -0.708525
			 0.753570  0.076869 -0.652858
			 0.932961  0.074217 -0.352244
			 0.845868  0.205691 -0.492137
			 0.480423  0.327033 -0.813783
			-0.112994  0.299618 -0.947344
			 0.005976  0.005394 -0.999968
			 0.059130  0.176631 -0.982499
			-0.009455  0.051276 -0.998640
			-0.010102 -0.044346 -0.998965
			-0.165343 -0.090219 -0.982101
			-0.453423 -0.010632 -0.891232
			-0.412463  0.113148 -0.903921
			-0.728819  0.091646 -0.678545
			-0.895423  0.188753 -0.403224
			-0.970735  0.240017  0.008053
			-0.992454  0.122609 -0.001437
			-0.904225  0.085011  0.418509
			-0.328125  0.052889  0.943152
			-0.436560  0.041812  0.898703
			-0.753313  0.073643  0.653526
			-0.441464  0.019372  0.897070
			-0.611486  0.011703  0.791169
			-0.874375  0.017262  0.484943
			 0.054868  0.012497  0.998415
			 0.048993  0.035569  0.998166
			-0.097998  0.022757  0.994926
			-0.218756  0.044815  0.974750
			 0.403832 -0.045952  0.913678
			 0.233735  0.040788  0.971444
			-0.951817  0.126776  0.279233
			 0.982013 -0.007739  0.188652
			 0.928218 -0.002974  0.372026
			 0.821341 -0.032138  0.569531
			 0.703134 -0.019062  0.710802
			 0.905346 -0.045691  0.422210
			 0.934202 -0.028205  0.355628
			 0.255016  0.496418 -0.829781
			 0.413215  0.376921 -0.828966
			 0.096290  0.326688 -0.940214
			 0.332230  0.460497 -0.823144
			 0.676999  0.423688 -0.601798
			 0.616193  0.371973 -0.694221
			 0.977736  0.067270 -0.198766
			 0.991092  0.101850 -0.085808
			 0.927046  0.269292 -0.260899
			 0.366698  0.305824 -0.878637
			 0.266517  0.185792 -0.945754
			 0.135275  0.054354 -0.989316
			 0.051149 -0.034255 -0.998103
			-0.026218 -0.091014 -0.995504
			 0.066300 -0.107768 -0.991963
			-0.453879 -0.145231 -0.879148
			-0.149819 -0.144605 -0.978082
			-0.031891 -0.120375 -0.992216
			-0.793047  0.018759 -0.608872
			-0.756494 -0.078662 -0.649252
			-0.934040  0.083744 -0.347212
			-0.883996  0.023900 -0.466884
			-0.896745  0.042320 -0.440520
			-0.989431  0.116033 -0.086959
			-0.954526  0.099057  0.281192
			-0.966214  0.031401  0.255819
			-0.996548  0.057798  0.059588
			-0.170018  0.067822  0.983104
			-0.333667  0.000094  0.942691
			-0.170733  0.046881  0.984201
			-0.734799 -0.052783  0.676228
			-0.693088 -0.068707  0.717572
			-0.500754 -0.046547  0.864337
			-0.977481 -0.014304  0.210540
			-0.941114 -0.034636  0.336310
			-0.980502 -0.000390  0.196510
			-0.814777 -0.028436  0.579077
			 0.178466  0.055342  0.982389
			-0.011081  0.052262  0.998572
			 0.516055  0.021802  0.856278
			 0.320486  0.073752  0.944378
			 0.264119  0.079280  0.961226
			 0.973359  0.040803  0.225628
			 0.832998 -0.081389  0.547257
			 0.781563 -0.053842  0.621498
			 0.777322  0.019322  0.628806
			 0.877946  0.028921  0.477886
			 0.933654  0.039187  0.356026
			 0.915035  0.061089  0.398723
			 0.599857  0.471210 -0.646632
			 0.646403  0.419173 -0.637540
			 0.867959  0.392780 -0.303925
			 0.809329  0.358433 -0.465309
			 0.964917  0.251387 -0.075759
			 0.979255  0.130995  0.154595
			 0.545462  0.193474 -0.815499
			 0.780587  0.276186 -0.560719
			 0.345512  0.122353 -0.930404
			 0.143930 -0.024411 -0.989287
			 0.284568 -0.010605 -0.958597
			 0.194068 -0.070835 -0.978427
			 0.233943 -0.090593 -0.968020
			 0.011324 -0.145701 -0.989264
			 0.120585 -0.133557 -0.983678
			-0.789405 -0.156371 -0.593623
			-0.396893 -0.212084 -0.893026
			-0.197887 -0.201110 -0.959372
			-0.526987 -0.171759 -0.832336
			-0.603447 -0.136722 -0.785595
			-0.014308 -0.159095 -0.987160
			-0.952641 -0.008321 -0.303984
			-0.883525 -0.076924 -0.462024
			-0.979185  0.060222 -0.193830
			-0.998893 -0.015796  0.044312
			-0.096154  0.022861  0.995104
			-0.325016 -0.056967  0.943991
			-0.783906 -0.044645  0.619272
			-0.508798 -0.086980  0.856481
			-0.637041 -0.082181  0.766436
			-0.990556  0.005710  0.136987
			-0.999506 -0.030096  0.009103
			-0.996274 -0.074734  0.043053
			-0.957019 -0.088784  0.276102
			-0.838422 -0.046831  0.543006
			 0.280500  0.056067  0.958215
			 0.219570  0.044520  0.974580
			 0.119999  0.067684  0.990464
			 0.685155  0.082095  0.723756
			 0.524430  0.110504  0.844252
			 0.909507  0.131487  0.394345
			 0.810476  0.111024  0.575154
			 0.963303  0.187537  0.192036
			 0.929130  0.133106  0.344964
			 0.931411  0.318737 -0.175728
			 0.959555  0.280927  0.018299
			 0.952636  0.268655  0.142510
			 0.761712  0.173454 -0.624267
			 0.695032  0.081834 -0.714307
			 0.456894  0.163472 -0.874371
			 0.914369  0.222692 -0.338138
			 0.975294  0.220374 -0.015403
			 0.426999  0.049476 -0.902898
			 0.380468 -0.042403 -0.923821
			 0.286811 -0.026407 -0.957623
			 0.411714 -0.144605 -0.899767
			 0.503697 -0.036189 -0.863122
			 0.414123 -0.030005 -0.909726
			 0.219423 -0.121689 -0.968011
			 0.099166 -0.137487 -0.985527
			-0.916808 -0.214694 -0.336704
			-0.863298 -0.193327 -0.466199
			-0.943523 -0.062917 -0.325279
			-0.969416 -0.133142 -0.206169
			-0.532392 -0.320743 -0.783379
			-0.064818 -0.294627 -0.953411
			-0.045627 -0.211138 -0.976391
			 0.163600 -0.175822 -0.970733
			 0.037543 -0.171020 -0.984552
			 0.035062  0.011902  0.999314
			-0.152209 -0.038692  0.987591
			-0.180416 -0.082896  0.980091
			-0.335342 -0.095296  0.937264
			-0.653717 -0.056612  0.754619
			-0.436594 -0.081877  0.895925
			-0.995915 -0.085024 -0.030405
			-0.990284 -0.138617  0.011086
			-0.957838 -0.101327  0.268848
			-0.832296 -0.075550  0.549159
			-0.903288 -0.088777  0.419748
			 0.433562  0.071743  0.898263
			 0.205720  0.042086  0.977706
			 0.697396  0.112686  0.707772
			 0.750750  0.066022  0.657279
			 0.913831  0.160649  0.372968
			 0.901016  0.081325  0.426095
			 0.961756  0.256671  0.095628
			 0.934294  0.211741  0.286812
			 0.821146  0.052630 -0.568287
			 0.936423  0.154089 -0.315229
			 0.973369  0.155024 -0.168877
			 0.495957 -0.019329 -0.868132
			 0.613693  0.028560 -0.789028
			 0.977353  0.021873 -0.210481
			 0.917596 -0.006749 -0.397457
			 0.990418  0.123822  0.061164
			 0.932532  0.133348  0.335563
			 0.280536 -0.253492 -0.925765
			 0.654880 -0.046636 -0.754293
			 0.666358 -0.158175 -0.728661
			 0.415878 -0.241411 -0.876793
			 0.605126 -0.206759 -0.768813
			 0.671586 -0.015755 -0.740759
			 0.606053  0.021557 -0.795132
			-0.937982 -0.145853 -0.314509
			-0.965947 -0.163391 -0.200625
			-0.834443 -0.292717 -0.466928
			-0.912427 -0.209002 -0.351844
			-0.190959 -0.377779 -0.905990
			-0.298117 -0.390190 -0.871136
			-0.698573 -0.318976 -0.640508
			-0.556311 -0.351622 -0.752915
			 0.011596 -0.343477 -0.939089
			 0.159937 -0.315849 -0.935233
			 0.164569 -0.370066 -0.914313
			 0.208026 -0.261429 -0.942539
			 0.217687 -0.016721  0.975876
			-0.037290 -0.057696  0.997637
			-0.032148 -0.062027  0.997557
			-0.258740 -0.087458  0.961980
			-0.040784 -0.065032  0.997049
			-0.088078 -0.086501  0.992351
			-0.733587 -0.063820  0.676593
			-0.508485 -0.068207  0.858366
			-0.341709 -0.079876  0.936406
			-0.984989 -0.159291  0.066509
			-0.951188 -0.112563  0.287352
			-0.871370 -0.052480  0.487812
			-0.879201 -0.092895  0.467307
			 0.622828  0.021739  0.782057
			 0.419248  0.058675  0.905974
			 0.673813 -0.020468  0.738618
			 0.726903  0.007772  0.686696
			 0.885540  0.008706  0.464482
			 0.938420  0.052118  0.341542
			 0.917457  0.023488  0.397141
			 0.719997  0.065826 -0.690848
			 0.990456  0.133815  0.033021
			 0.978066  0.022979  0.207026
			 0.965681  0.093533  0.242307
			 0.998454 -0.029928  0.046831
			 0.965622 -0.000586 -0.259949
			 0.732826  0.030712 -0.679723
			 0.791932 -0.037308 -0.609468
			 0.904084 -0.020414 -0.426868
			 0.273339 -0.300290 -0.913845
			 0.814043 -0.084962 -0.574557
			 0.830476 -0.136376 -0.540103
			 0.707829 -0.200303 -0.677390
			 0.290783 -0.263382 -0.919823
			 0.418126 -0.343107 -0.841100
			 0.641349 -0.276020 -0.715880
			-0.963331 -0.261318  0.060887
			-0.957184 -0.250700 -0.144732
			-0.913798 -0.226047 -0.337456
			-0.766290 -0.317277 -0.558691
			-0.924844 -0.293551 -0.241850
			-0.899266 -0.326309 -0.291280
			-0.861013 -0.311951 -0.401675
			-0.037114 -0.367540 -0.929267
			-0.156897 -0.358200 -0.920368
			-0.635197 -0.341037 -0.692978
			-0.265484 -0.332849 -0.904837
			 0.083511 -0.313666 -0.945854
			 0.175779 -0.298907 -0.937953
			 0.200837 -0.257592 -0.945151
			 0.206957 -0.287609 -0.935120
			 0.237704 -0.243456 -0.940333
			 0.536391  0.012862  0.843872
			 0.421870 -0.037633  0.905875
			 0.158155 -0.045891  0.986347
			-0.164083 -0.092648  0.982086
			 0.015103 -0.070618  0.997389
			-0.050416 -0.106382  0.993046
			-0.806329 -0.082944  0.585623
			-0.618700 -0.062612  0.783129
			-0.690527 -0.062261  0.720622
			-0.556539 -0.061618  0.828533
			-0.336441 -0.090769  0.937320
			-0.450682 -0.054537  0.891017
			-0.934360 -0.201804  0.293676
			-0.853298 -0.116333  0.508280
			 0.783665  0.014404  0.621017
			 0.895509  0.019302  0.444624
			 0.947697 -0.019991  0.318544
			 0.999341 -0.026178 -0.025146
			 0.964757 -0.037798  0.260413
			 0.979808 -0.039199 -0.196061
			 0.936171 -0.057567 -0.346801
			 0.934968 -0.062754 -0.349137
			 0.934663 -0.182409 -0.305176
			 0.821175 -0.261034 -0.507476
			 0.737200 -0.307699 -0.601546
			 0.259308 -0.298472 -0.918517
			 0.367329 -0.368510 -0.853973
			 0.652409 -0.381280 -0.654971
			-0.930434 -0.317964  0.182185
			-0.964702 -0.236349  0.116144
			-0.947670 -0.292704  0.127455
			-0.952183 -0.293071  0.086351
			-0.576396 -0.354678 -0.736187
			-0.796183 -0.346769 -0.495826
			-0.957187 -0.286513 -0.041264
			-0.844339 -0.414933 -0.339002
			-0.929859 -0.366454 -0.032767
			-0.050266 -0.306859 -0.950427
			-0.060739 -0.304385 -0.950611
			-0.218195 -0.399920 -0.890199
			 0.148611 -0.246896 -0.957579
			 0.163168 -0.241762 -0.956518
			 0.302860 -0.146648 -0.941685
			 0.206089 -0.171149 -0.963450
			 0.180780 -0.279239 -0.943051
			 0.652026 -0.011067  0.758116
			 0.499759 -0.061603  0.863971
			 0.250647 -0.078670  0.964877
			-0.008938 -0.083861  0.996437
			-0.263177 -0.078022  0.961587
			-0.270930 -0.092969  0.958099
			 0.000488 -0.098804  0.995107
			 0.102970 -0.079912  0.991469
			-0.735503 -0.094385  0.670915
			-0.617011 -0.079572  0.782922
			-0.473034 -0.084346  0.876997
			-0.393563 -0.063594  0.917095
			-0.945279 -0.235781  0.225512
			-0.856035 -0.160860  0.491251
			-0.916982 -0.190858  0.350311
			 0.814960  0.026421  0.578914
			 0.858420 -0.021480  0.512497
			 0.999505 -0.019792  0.024465
			 0.873927 -0.026873  0.485315
			 0.972314 -0.026661  0.232155
			 0.998252 -0.018297 -0.056190
			 0.991396 -0.123124 -0.044434
			 0.965308 -0.240275 -0.102215
			 0.911977 -0.360435 -0.195918
			 0.880230 -0.300651 -0.367156
			 0.764465 -0.374300 -0.524874
			 0.821684 -0.337872 -0.458996
			 0.603448 -0.399109 -0.690335
			 0.405356 -0.371989 -0.835051
			 0.771273 -0.386111 -0.506020
			 0.710803 -0.368455 -0.599166
			-0.947240 -0.266870  0.177529
			-0.888658 -0.236205  0.393058
			-0.937133 -0.266424  0.225387
			-0.541075 -0.430639 -0.722349
			-0.768231 -0.372087 -0.520935
			-0.948705 -0.261838  0.177199
			-0.916000 -0.401168 -0.002942
			-0.926049 -0.349181 -0.143200
			-0.818953 -0.473278 -0.324537
			-0.679882 -0.402257 -0.613147
			-0.641042 -0.397875 -0.656324
			-0.762418 -0.409227 -0.501250
			-0.957276 -0.244826  0.153892
			-0.275182 -0.354876 -0.893497
			 0.065446 -0.306001 -0.949779
			 0.352163 -0.140507 -0.925332
			 0.357954 -0.161103 -0.919736
			 0.359069 -0.089494 -0.929010
			 0.095409 -0.209029 -0.973244
			 0.196284 -0.161688 -0.967125
			 0.078939 -0.346531 -0.934711
			 0.130596 -0.222857 -0.966064
			 0.153638 -0.171653 -0.973104
			 0.071303 -0.301139 -0.950911
			 0.685702 -0.012507  0.727774
			 0.322926 -0.084394  0.942654
			 0.345483 -0.060096  0.936499
			 0.501159 -0.021329  0.865092
			-0.217566 -0.109616  0.969871
			 0.226764 -0.066042  0.971708
			-0.027312 -0.086673  0.995862
			-0.385562 -0.122893  0.914461
			-0.751631 -0.169919  0.637321
			-0.559419 -0.103902  0.822347
			-0.638447 -0.159785  0.752897
			-0.912720 -0.243757  0.327910
			 0.785237 -0.041495  0.617803
			 0.750705 -0.028201  0.660036
			 0.858205  0.000835  0.513306
			 0.916670 -0.090468  0.389272
			 0.972335 -0.144611  0.183444
			 0.946446 -0.306560  0.101295
			 0.945369 -0.191911  0.263527
			 0.901596 -0.419281 -0.106431
			 0.835459 -0.374242 -0.402431
			 0.812169 -0.405224 -0.419733
			 0.864341 -0.401769 -0.302484
			 0.398340 -0.395200 -0.827733
			 0.716526 -0.400733 -0.570968
			-0.914295 -0.205868  0.348830
			-0.886989 -0.210754  0.410894
			-0.863011 -0.208101  0.460333
			-0.752538 -0.201429  0.626987
			-0.768852 -0.185598  0.611899
			-0.842647 -0.389435 -0.371868
			-0.916756 -0.136268 -0.375487
			-0.989311 -0.136076 -0.052410
			-0.494143 -0.304244 -0.814407
			-0.741906 -0.281041 -0.608763
			-0.644709 -0.251767 -0.721778
			-0.809971 -0.247271 -0.531793
			-0.939496 -0.121296  0.320366
			-0.967379 -0.129743  0.217588
			-0.999381 -0.002897  0.035062
			-0.144403 -0.176876 -0.973582
			 0.185675 -0.204138 -0.961172
			 0.476139 -0.181279 -0.860482
			 0.363183 -0.184565 -0.913254
			 0.393715 -0.011380 -0.919162
			 0.072634 -0.203338 -0.976411
			 0.239525 -0.125125 -0.962794
			 0.131055 -0.213044 -0.968213
			 0.068257 -0.221320 -0.972810
			 0.196202 -0.441378 -0.875609
			 0.082760 -0.170389 -0.981895
			 0.098055 -0.271815 -0.957341
			 0.151944 -0.323551 -0.933932
			 0.017148 -0.198075 -0.980037
			-0.067746 -0.292728 -0.953793
			 0.549829 -0.028294  0.834798
			-0.167703 -0.071949  0.983209
			-0.398751 -0.152588  0.904276
			 0.474230 -0.042680  0.879366
			 0.317374 -0.072678  0.945511
			 0.054348 -0.083871  0.994993
			-0.069221 -0.084042  0.994055
			-0.714561 -0.165565  0.679699
			-0.686896 -0.208286  0.696269
			-0.616354 -0.153179  0.772427
			 0.711276 -0.026731  0.702404
			 0.769604 -0.041462  0.637174
			 0.680371 -0.007792  0.732827
			 0.889232 -0.208532  0.407162
			 0.788168 -0.213189  0.577357
			 0.909514 -0.260542  0.323885
			 0.858981 -0.358507  0.365546
			 0.915368 -0.323159  0.240148
			 0.915355 -0.399911  0.046857
			 0.924434 -0.378472 -0.046693
			 0.803226 -0.377040 -0.461160
			 0.890818 -0.252928 -0.377453
			 0.935634 -0.320921 -0.146968
			 0.608024 -0.409298 -0.680281
			 0.771430 -0.402018 -0.493231
			 0.763102 -0.353238 -0.541201
			-0.903108 -0.153057  0.401210
			-0.821619 -0.203031  0.532655
			-0.702218 -0.149361  0.696119
			-0.626811 -0.111550  0.771145
			-0.681095 -0.162307  0.713979
			-0.966300  0.059763 -0.250385
			-0.746334 -0.122032 -0.654289
			-0.848051 -0.032981 -0.528887
			-0.531340 -0.146115 -0.834463
			-0.963842  0.030235  0.264755
			-0.988591  0.085672  0.123888
			-0.970312  0.076025  0.229596
			-0.956383  0.237307 -0.170344
			 0.359007 -0.193198 -0.913120
			 0.063536 -0.062449 -0.996024
			-0.238621  0.013586 -0.971018
			 0.332107 -0.299812 -0.894325
			 0.019204 -0.187959 -0.981989
			 0.155751 -0.204542 -0.966387
			 0.308596 -0.322893 -0.894711
			 0.531234 -0.458403 -0.712500
			-0.110422 -0.238448 -0.964857
			-0.048544 -0.208353 -0.976848
			-0.080602 -0.334498 -0.938943
			-0.112125 -0.286783 -0.951411
			 0.586203 -0.028089  0.809677
			-0.126844 -0.054475  0.990426
			-0.239869 -0.045055  0.969759
			-0.172226 -0.021475  0.984823
			-0.207314 -0.027490  0.977888
			-0.235854 -0.118735  0.964507
			-0.188829 -0.077411  0.978954
			-0.404045 -0.076690  0.911519
			 0.628770 -0.049285  0.776028
			 0.426364 -0.079839  0.901022
			 0.198667 -0.137252  0.970409
			 0.039175 -0.100397  0.994176
			-0.047462 -0.038750  0.998121
			-0.581309 -0.086761  0.809044
			 0.727061 -0.114516  0.676955
			 0.832656 -0.289778  0.471925
			 0.693365 -0.179184  0.697952
			 0.674736 -0.260264  0.690648
			 0.725658 -0.264884  0.635025
			 0.805184 -0.322736  0.497513
			 0.809717 -0.290539  0.509849
			 0.884881 -0.234689  0.402376
			 0.941328 -0.183826  0.283036
			 0.958364 -0.284612  0.023102
			 0.976591 -0.160597  0.143103
			 0.944838 -0.212273 -0.249441
			 0.883008 -0.055512 -0.466064
			 0.928317 -0.088896 -0.361006
			 0.962148 -0.052730 -0.267376
			 0.973053 -0.230570  0.002271
			 0.983156 -0.167051 -0.074152
			 0.608518 -0.350093 -0.712138
			 0.714147 -0.304590 -0.630254
			-0.771065 -0.174396  0.612409
			-0.801178 -0.107897  0.588619
			-0.924068  0.010341  0.382089
			-0.551047 -0.045897  0.833211
			-0.540778 -0.128841  0.831240
			-0.460447 -0.049035  0.886332
			-0.682075 -0.185234  0.707433
			-0.884454  0.280035 -0.373259
			-0.685577 -0.070817 -0.724548
			-0.795183  0.121996 -0.593970
			-0.740691 -0.106274 -0.663387
			-0.493082 -0.028582 -0.869513
			-0.961067  0.120833  0.248497
			-0.946583  0.129290  0.295405
			-0.981183  0.192374 -0.016522
			-0.942696  0.255054 -0.215107
			-0.972397  0.211632  0.098261
			 0.214751 -0.135569 -0.967214
			 0.046684  0.024330 -0.998613
			-0.076332  0.083084 -0.993615
			-0.249843  0.112437 -0.961736
			-0.133146  0.210535 -0.968477
			 0.054686 -0.119275 -0.991354
			 0.134663  0.028605 -0.990479
			 0.197157 -0.040878 -0.979519
			 0.553998 -0.259497 -0.791042
			 0.147024 -0.292442 -0.944914
			 0.030251 -0.278872 -0.959852
			-0.025270 -0.082880 -0.996239
			 0.057217 -0.147488 -0.987407
			-0.017808  0.098329 -0.994995
			 0.004496  0.027713 -0.999606
			-0.063579 -0.067187  0.995713
			-0.259878 -0.050627  0.964313
			-0.218268 -0.078594  0.972719
			-0.336101 -0.082647  0.938193
			 0.579828 -0.140886  0.802466
			 0.436433 -0.152445  0.886728
			 0.262986 -0.194096  0.945074
			 0.240351 -0.094278  0.966097
			 0.069323 -0.032953  0.997050
			 0.575672 -0.228625  0.785068
			 0.683824 -0.302331  0.664064
			 0.704837 -0.295434  0.644921
			 0.914119 -0.128357  0.384591
			 0.822872 -0.196225  0.533270
			 0.973461  0.003162  0.228831
			 0.998740 -0.040459  0.029695
			 0.829633  0.068450 -0.554097
			 0.949319  0.061156 -0.308308
			 0.926534  0.191307 -0.323939