<?xml version="1.0"?>
<VTKFile type="PolyData" version="0.1" byte_order="LittleEndian" compressor="vtkZLibDataCompressor">
	<PolyData>
		<Piece NumberOfPoints="1011" NumberOfVerts="0" NumberOfLines="0" NumberOfStrips="0" NumberOfPolys="2022">
		<PointData Normals="Normals">
		<DataArray type="Float32" Name="Normals" NumberOfComponents="3" format="ascii">
			 0.051694 -0.732177  0.679150
			-0.062247 -0.642325  0.763900
			-0.280944 -0.543229  0.791184
			 0.012805 -0.666033  0.745812
			-0.215610 -0.704095  0.676581
			 0.102177 -0.771183  0.628361
			 0.157240 -0.684857  0.711510
			 0.312864 -0.750860  0.581657
			-0.191849 -0.497801  0.845806
			 0.017954 -0.582426  0.812686
			-0.536386 -0.365692  0.760631
			-0.506672 -0.350291  0.787769
			-0.779220 -0.211314  0.590053
			-0.687172 -0.441927  0.576624
			 0.074181 -0.589144  0.804616
			-0.706412 -0.523977  0.475847
			-0.060815 -0.789572  0.610637
			-0.410074 -0.740245  0.532801
			 0.242128 -0.768792  0.591889
			 0.210623 -0.589049  0.780166
			 0.346606 -0.715073  0.607071
			 0.403286 -0.657674  0.636259
			 0.435491 -0.723947  0.535022
			 0.438919 -0.785121  0.436961
			 0.456415 -0.746481  0.484202
			-0.501945 -0.252563  0.827202
			-0.039542 -0.450798  0.891750
			-0.313066 -0.271964  0.909959
			 0.043013 -0.516499  0.855207
			-0.687086 -0.061497  0.723969
			-0.873670 -0.185955  0.449579
			-0.945638  0.135757  0.295533
			-0.991813  0.113641  0.058245
			-0.986079  0.090901  0.139233
			-0.989830 -0.064965  0.126552
			-0.967429 -0.206416  0.146537
			 0.217335 -0.441401  0.870592
			-0.823182 -0.494740  0.278574
			-0.337192 -0.824180  0.455005
			-0.207240 -0.833472  0.512226
			 0.020433 -0.810002  0.586072
			-0.810512 -0.540811  0.224931
			 0.379754 -0.834250  0.399767
			 0.375140 -0.555251  0.742271
			 0.407955 -0.709466  0.574657
			 0.422235 -0.626021  0.655604
			 0.434383 -0.514629  0.739235
			 0.452061 -0.791645  0.411022
			 0.381344 -0.792006  0.476763
			 0.457068 -0.840732  0.290275
			-0.581689 -0.027591  0.812943
			-0.112117 -0.162507  0.980317
			-0.004124 -0.168383  0.985713
			-0.386045  0.065804  0.920130
			 0.067538 -0.369169  0.926905
			-0.778044  0.100222  0.620163
			-0.438709  0.229302  0.868881
			-0.983248  0.169939  0.065907
			-0.972151  0.232581  0.028798
			-0.899569  0.314484  0.303109
			-0.981671  0.144516 -0.124243
			-0.974663  0.209073 -0.079503
			-0.997819  0.045176 -0.048137
			-0.989642  0.071677 -0.124383
			-0.986552 -0.162415 -0.018344
			 0.175546 -0.221463  0.959238
			 0.253288 -0.097692  0.962445
			 0.378910 -0.352926  0.855495
			-0.346774 -0.854438  0.386889
			-0.659112 -0.708476  0.252254
			-0.054568 -0.918572  0.391469
			 0.182611 -0.925060  0.333042
			-0.984731 -0.172267 -0.025084
			-0.959268 -0.282195  0.013075
			 0.395638 -0.904177  0.161045
			 0.380515 -0.895688  0.230113
			 0.304246 -0.789859  0.532501
			 0.437773 -0.498702  0.748098
			 0.262067 -0.702641  0.661526
			 0.440373 -0.841629  0.312623
			 0.374899 -0.859573  0.347254
			 0.422801 -0.814237  0.397817
			-0.218482  0.272361  0.937062
			 0.019574  0.129125  0.991435
			-0.092640  0.103496  0.990306
			-0.678284  0.272171  0.682535
			-0.531115  0.404322  0.744608
			-0.204436  0.479285  0.853517
			-0.174773  0.504119  0.845765
			-0.932988  0.307784 -0.186552
			-0.893197  0.444635 -0.067070
			-0.855307  0.437221  0.278007
			-0.958853  0.223219 -0.175428
			-0.981684  0.113232 -0.153215
			-0.992932  0.004266 -0.118611
			 0.079696  0.272016  0.958987
			 0.361613 -0.026128  0.931962
			 0.184902  0.251271  0.950092
			 0.428493 -0.323598  0.843610
			-0.820715 -0.550488  0.152942
			-0.365802 -0.819555  0.441043
			-0.047378 -0.929624  0.365451
			 0.160108 -0.934534  0.317822
			-0.991082 -0.103875 -0.083461
			 0.476277 -0.873583  0.100062
			 0.432304 -0.901187 -0.031233
			 0.350595 -0.934663 -0.059060
			 0.306111 -0.902576  0.302742
			 0.235047 -0.961739  0.140756
			 0.250023 -0.967476 -0.038438
			 0.294957 -0.934179  0.200773
			 0.467979 -0.872476  0.140648
			 0.170939 -0.779015  0.603254
			 0.192602 -0.857204  0.477604
			 0.167219 -0.901548  0.399061
			 0.460496 -0.399954  0.792452
			 0.246379 -0.541527  0.803770
			 0.230147 -0.532627  0.814457
			-0.131701  0.301035  0.944475
			-0.152247  0.468959  0.869999
			-0.048432  0.471256  0.880666
			-0.590848  0.597169  0.542483
			-0.206295  0.530820  0.821993
			-0.547476  0.751247  0.368643
			-0.058588  0.408698  0.910787
			-0.867765  0.430428 -0.248425
			-0.815944  0.547395 -0.185997
			-0.717262  0.694367 -0.058224
			-0.757458  0.647016  0.087337
			-0.942714  0.327029 -0.065899
			-0.978753  0.204874  0.008285
			-0.939825  0.246016 -0.237075
			-0.975355  0.175340 -0.133936
			-0.962606  0.190736 -0.192380
			-0.975066  0.199474  0.097240
			-0.980469  0.196650 -0.002928
			 0.265807  0.255632  0.929516
			 0.451283 -0.199581  0.869777
			 0.339335  0.129660  0.931687
			 0.073068  0.486602  0.870563
			 0.436444 -0.301020  0.847882
			-0.997385  0.068892 -0.021823
			-0.707291 -0.626454  0.327558
			-0.952355 -0.265586  0.149946
			-0.040931 -0.927986  0.370360
			-0.274468 -0.895435  0.350520
			 0.231932 -0.960082  0.156366
			 0.478995 -0.877663 -0.016467
			 0.400768 -0.893817 -0.201186
			 0.346360 -0.933325 -0.094548
			 0.269315 -0.935264 -0.229677
			 0.244331 -0.940270  0.237053
			 0.100747 -0.955488  0.277294
			 0.130102 -0.984363  0.118760
			 0.127297 -0.988521 -0.081373
			 0.473216 -0.880834 -0.014076
			 0.081339 -0.861364  0.501433
			 0.063947 -0.709456  0.701843
			 0.268593 -0.357498  0.894457
			 0.200666 -0.393809  0.897022
			 0.294596 -0.250755  0.922136
			 0.187323 -0.304253  0.933991
			-0.018707  0.441169  0.897229
			-0.063345  0.616738  0.784616
			-0.391370  0.721215  0.571558
			-0.554311  0.831797  0.029219
			-0.122195  0.457801  0.880617
			-0.873453  0.426461 -0.234969
			-0.833502  0.510717 -0.210813
			-0.767622  0.605058 -0.211334
			-0.692677  0.704998 -0.152239
			-0.973501  0.222690  0.052010
			-0.819786  0.568269 -0.070862
			-0.899160  0.437383 -0.014397
			-0.949693  0.275475  0.148984
			-0.942170  0.335134  0.001070
			-0.974177  0.185204  0.129148
			-0.984069  0.160164  0.077177
			 0.528361 -0.079229  0.845315
			 0.143174  0.501587  0.853178
			 0.405241  0.180996  0.896114
			-0.024563  0.624993  0.780244
			 0.392893 -0.123693  0.911227
			 0.397332 -0.270741  0.876828
			-0.983584  0.172009  0.054546
			-0.995336 -0.020401  0.094290
			-0.979007 -0.181284  0.093173
			-0.634625 -0.740731  0.220383
			-0.895955 -0.417571  0.151324
			-0.190500 -0.971243  0.142815
			 0.422048 -0.898227 -0.122733
			 0.172486 -0.984717 -0.024093
			 0.472493 -0.851006 -0.229214
			 0.423942 -0.819468 -0.385674
			 0.293237 -0.852842 -0.432057
			 0.124047 -0.954841 -0.269984
			 0.178945 -0.911887 -0.369380
			-0.010240 -0.921641  0.387909
			 0.009004 -0.997484  0.070322
			-0.073483 -0.994359  0.076482
			-0.017865 -0.954996  0.296082
			 0.009974 -0.972103 -0.234344
			 0.006030 -0.999127 -0.041346
			 0.504700 -0.832387 -0.228931
			-0.054962 -0.839757  0.540173
			 0.039532 -0.418622  0.907300
			-0.038963 -0.713538  0.699532
			 0.279421 -0.229161  0.932421
			 0.157491 -0.107458  0.981657
			-0.119956  0.541164  0.832317
			 0.008821  0.433862  0.900936
			-0.140189  0.575576  0.805642
			-0.578025  0.813821  0.059855
			-0.486668  0.795037  0.362038
			-0.631875  0.768746 -0.098809
			-0.734243  0.660244 -0.158003
			-0.687397  0.699232 -0.196365
			-0.756567  0.646340 -0.099254
			-0.669863  0.733725 -0.113720
			-0.680901  0.722335 -0.120855
			-0.840793  0.517607 -0.158586
			-0.950640  0.297648 -0.087688
			-0.857647  0.501107 -0.115474
			-0.961653  0.182489  0.204746
			-0.972295  0.224095 -0.066509
			-0.960408  0.220092  0.170810
			 0.125625  0.434264  0.891983
			 0.416187  0.158898  0.895287
			 0.206046  0.211068  0.955508
			 0.337072 -0.029272  0.941024
			 0.191313 -0.158238  0.968690
			 0.179253 -0.251649  0.951074
			-0.969014  0.136933  0.205575
			-0.993479 -0.100750 -0.053377
			-0.964928 -0.261292 -0.025312
			-0.523029 -0.830772  0.190419
			-0.814768 -0.579580  0.015481
			 0.406361 -0.829711 -0.382688
			-0.275797 -0.961015 -0.019642
			 0.122963 -0.946453 -0.298507
			 0.344010 -0.844683 -0.410083
			 0.434961 -0.776328 -0.456205
			 0.355811 -0.699110 -0.620196
			 0.306961 -0.755488 -0.578803
			 0.283472 -0.813922 -0.507124
			 0.231754 -0.851972 -0.469504
			 0.232075 -0.875960 -0.422890
			 0.117196 -0.834190 -0.538881
			 0.049045 -0.934694 -0.352053
			-0.079511 -0.920904  0.381594
			-0.023306 -0.999680 -0.009797
			-0.095321 -0.962725  0.253128
			-0.135652 -0.990754 -0.002438
			-0.070091 -0.994309 -0.080228
			-0.139764 -0.986846  0.081244
			-0.020884 -0.942359 -0.333950
			-0.083745 -0.972470 -0.217462
			-0.059936 -0.951382 -0.302127
			-0.108675 -0.807393  0.579920
			-0.144238 -0.886056  0.440567
			 0.077709 -0.394861  0.915449
			 0.023055 -0.134028  0.990709
			-0.133158 -0.753764  0.643513
			-0.022704 -0.495282  0.868436
			 0.052445 -0.246418  0.967744
			 0.028473 -0.158556  0.986939
			 0.039699 -0.122330  0.991695
			-0.303832  0.782359  0.543692
			-0.061999  0.419743  0.905523
			-0.397618  0.736403  0.547367
			-0.539338  0.810670  0.227877
			-0.618734  0.785122  0.027411
			-0.637496  0.766585 -0.077112
			-0.700892  0.705787 -0.103029
			-0.658366  0.738937 -0.143271
			-0.649942  0.754136 -0.094094
			-0.675425  0.714687 -0.181725
			-0.758050  0.639786 -0.126627
			-0.819285  0.555937 -0.140375
			-0.917703  0.112925 -0.380880
			-0.915916  0.387703 -0.103850
			-0.911857  0.234575 -0.336886
			-0.774012  0.575342 -0.264362
			-0.738452  0.515464 -0.434726
			-0.849995  0.488988 -0.195959
			-0.962864  0.202098 -0.179021
			-0.930415  0.138358 -0.339388
			-0.985394  0.135651  0.102944
			 0.071216  0.304808  0.949747
			-0.025362  0.347800  0.937226
			 0.162595  0.256209  0.952848
			 0.160376  0.113170  0.980547
			 0.275475  0.191725  0.941995
			 0.112662  0.214730  0.970154
			 0.059830  0.210810  0.975694
			-0.002745  0.106579  0.994301
			-0.031930  0.179131  0.983307
			-0.142103 -0.342851  0.928580
			-0.083901 -0.190324  0.978129
			-0.034302 -0.016900  0.999269
			-0.204092 -0.328594  0.922156
			-0.760579 -0.366658 -0.535800
			-0.689335 -0.272498 -0.671239
			-0.957541  0.053422 -0.283303
			-0.701588 -0.587708 -0.402955
			-0.478003 -0.826191 -0.298197
			 0.304611 -0.710541 -0.634305
			-0.036490 -0.802968 -0.594904
			 0.218185 -0.560180 -0.799121
			 0.252272 -0.553749 -0.793549
			 0.264988 -0.675344 -0.688253
			 0.188385 -0.719131 -0.668851
			 0.222126 -0.807586 -0.546319
			 0.140824 -0.597908 -0.789097
			-0.015066 -0.641004 -0.767390
			-0.046809 -0.778062 -0.626442
			-0.051108 -0.825900 -0.561495
			-0.045178 -0.887917 -0.457780
			-0.145248 -0.958377  0.245798
			-0.157068 -0.983174 -0.093261
			-0.177760 -0.984015  0.010739
			-0.178971 -0.975081  0.131099
			-0.065871 -0.932212 -0.355867
			-0.143391 -0.949987 -0.277424
			-0.112173 -0.952348 -0.283639
			-0.069474 -0.909724 -0.409361
			-0.131246 -0.814754  0.564758
			-0.187158 -0.948511  0.255535
			-0.141100 -0.884602  0.444489
			-0.073475 -0.495280  0.865620
			-0.098233 -0.662401  0.742681
			-0.042759 -0.240298  0.969757
			-0.239858 -0.352434  0.904576
			-0.169714  0.584499  0.793447
			-0.554898  0.795461  0.243575
			-0.588048  0.803590 -0.091884
			-0.655447  0.751987 -0.070042
			-0.685396  0.723763 -0.079997
			-0.680909  0.717598 -0.146345
			-0.654058  0.734060  0.182657
			-0.812391  0.581291 -0.046068
			-0.723402  0.675811 -0.141313
			-0.695820  0.718193  0.005728
			-0.698561  0.692660 -0.179539
			-0.639092  0.688612 -0.342600
			-0.808593  0.042502 -0.586831
			-0.793738  0.042788 -0.606753
			-0.605441 -0.098513 -0.789770
			-0.755431  0.292206 -0.586463
			-0.634820  0.085987 -0.767861
			-0.698655  0.521296 -0.490032
			-0.484566  0.574361 -0.659776
			-0.582016  0.347047 -0.735402
			-0.549764  0.391908 -0.737677
			-0.362600  0.307024 -0.879919
			-0.805811  0.016692 -0.591938
			 0.046725  0.296702  0.953826
			-0.369404  0.694716  0.617179
			-0.371820  0.500929  0.781550
			-0.177309  0.448258  0.876143
			-0.081339  0.353671  0.931827
			 0.066322  0.140610  0.987841
			-0.056477  0.265285  0.962515
			-0.003689  0.220323  0.975420
			-0.089554  0.097401  0.991208
			-0.159233  0.273825  0.948507
			-0.347483 -0.173042  0.921581
			-0.440957 -0.366060  0.819486
			-0.225010  0.000358  0.974356
			-0.163922  0.145910  0.975623
			-0.220759 -0.528681 -0.819611
			-0.375657 -0.591087 -0.713791
			-0.824097 -0.035710 -0.565321
			-0.577991 -0.228598 -0.783371
			-0.123483 -0.455765 -0.881493
			-0.217359 -0.467301 -0.856962
			 0.120487 -0.616894 -0.777769
			 0.127604 -0.518632 -0.845422
			 0.083990 -0.458747 -0.884589
			-0.011549 -0.474151 -0.880368
			 0.186243 -0.525860 -0.829930
			 0.103976 -0.553912 -0.826057
			 0.025264 -0.368137 -0.929428
			-0.110809 -0.473146 -0.873988
			-0.107699 -0.684795 -0.720734
			-0.235746 -0.609986 -0.756532
			-0.086038 -0.691300 -0.717427
			-0.111309 -0.781772 -0.613549
			-0.091426 -0.829965 -0.550273
			 0.006666 -0.807410 -0.589953
			-0.107428 -0.855105 -0.507203
			 0.001802 -0.838352 -0.545126
			-0.058841 -0.808027 -0.586200
			-0.192553 -0.980315  0.043650
			-0.174176 -0.983553 -0.047820
			-0.122583 -0.974478 -0.188059
			 0.033564 -0.930981 -0.363521
			 0.094771 -0.861168 -0.499408
			 0.150383 -0.761641 -0.630309
			 0.336844 -0.592885 -0.731453
			-0.101465 -0.814448  0.571296
			-0.155047 -0.979000  0.132362
			-0.152866 -0.896928  0.414913
			 0.064623 -0.399319  0.914532
			-0.009202 -0.690469  0.723303
			-0.164688 -0.306210  0.937611
			 0.155695 -0.470228  0.868703
			-0.112646 -0.453570  0.884073
			-0.220462 -0.554187  0.802666
			-0.271826 -0.548214  0.790931
			-0.440046  0.637361  0.632558
			-0.543737  0.696174 -0.468714
			-0.689632  0.704739 -0.166585
			-0.642996  0.763970 -0.053908
			-0.766948  0.622769 -0.154756
			-0.793807  0.598668 -0.107087
			-0.691094  0.722471  0.020625
			-0.607984  0.713471  0.348301
			-0.684395  0.724212  0.084384
			-0.820340  0.571112 -0.029553
			-0.776173  0.626583  0.070354
			-0.387951 -0.264607 -0.882880
			-0.513735 -0.059857 -0.855858
			-0.148764 -0.379955 -0.912964
			-0.336438 -0.230030 -0.913179
			-0.409990  0.053714 -0.910507
			-0.435475 -0.053724 -0.898596
			-0.248536  0.526894 -0.812781
			-0.201788  0.396954 -0.895382
			-0.110432  0.008968 -0.993843
			-0.098018  0.297076 -0.949809
			-0.174575  0.546859  0.818821
			-0.474687  0.650274  0.593141
			-0.232482  0.618482  0.750621
			-0.040387  0.251274  0.967073
			-0.334940  0.562349  0.756028
			-0.357665  0.446119  0.820398
			 0.097339  0.012578  0.995172
			 0.030548  0.097619  0.994755
			-0.077956  0.330064  0.940734
			 0.187033  0.279396  0.941784
			-0.209284  0.255195  0.943968
			-0.462782 -0.134467  0.876214
			-0.412324  0.173610  0.894343
			-0.455208 -0.168678  0.874262
			-0.317900 -0.363737  0.875577
			-0.211849 -0.295411 -0.931586
			 0.079436 -0.429385 -0.899621
			-0.180148 -0.101672 -0.978371
			-0.294517 -0.697510 -0.653253
			-0.131207 -0.747071 -0.651667
			-0.494016 -0.227461 -0.839172
			-0.178038 -0.889721 -0.420356
			-0.195051 -0.891262 -0.409399
			-0.180387 -0.889097 -0.420675
			 0.188521 -0.687779 -0.701014
			 0.477099 -0.468055 -0.743842
			 0.343203 -0.495974 -0.797635
			 0.047633 -0.888215 -0.456952
			 0.231541 -0.801616 -0.551182
			 0.192887 -0.754127 -0.627763
			 0.028086 -0.982232 -0.185558
			-0.151431 -0.988320 -0.017071
			 0.251953 -0.907565 -0.335924
			 0.329593 -0.784206 -0.525727
			 0.362139 -0.610952 -0.703984
			 0.505269 -0.396156 -0.766657
			 0.513276 -0.213004 -0.831370
			 0.569646 -0.241747 -0.785533
			 0.192076 -0.583129  0.789346
			-0.019531 -0.797247  0.603338
			 0.030106 -0.998763 -0.039567
			 0.148203 -0.918134  0.367512
			 0.268856 -0.926190  0.264364
			 0.039492 -0.633432  0.772790
			 0.514597 -0.447780  0.731220
			 0.279874 -0.566361  0.775182
			 0.058807 -0.607488  0.792149
			-0.088264 -0.387853  0.917485
			 0.109410 -0.469655  0.876044
			-0.683492  0.622154 -0.381790
			-0.456815  0.314182 -0.832232
			-0.728558  0.675529 -0.113416
			-0.669208  0.743067  0.003448
			-0.806402  0.591198 -0.014157
			-0.817418  0.557618 -0.144536
			-0.885708  0.463052 -0.033235
			-0.866281  0.498285  0.035635
			-0.757672  0.644468  0.102922
			-0.805017  0.556860  0.204584
			-0.747198  0.656961  0.100482
			-0.679501  0.711423  0.179322
			-0.688261  0.722577  0.064653
			-0.690015  0.711794  0.131257
			-0.158753 -0.243227 -0.956890
			-0.133204  0.335651 -0.932521
			-0.133386  0.403180 -0.905347
			-0.307209  0.302500 -0.902284
			-0.537871  0.749740  0.385466
			-0.489860  0.760499  0.426237
			-0.407177  0.563293  0.718963
			-0.325355  0.622153  0.712089
			 0.020636  0.721815  0.691778
			 0.104891  0.473651  0.874444
			 0.310612  0.266390  0.912445
			 0.204894  0.297216  0.932567
			-0.006479  0.421457  0.906825
			 0.134990  0.450313  0.882608
			 0.362226  0.500240  0.786481
			 0.493544  0.262700  0.829098
			 0.548592  0.399977  0.734210
			-0.127480  0.534168  0.835711
			-0.129427  0.539012  0.832295
			-0.202388  0.349188  0.914936
			-0.281535 -0.067749  0.957156
			-0.634894 -0.253154 -0.729947
			-0.378228 -0.722266 -0.579029
			-0.702316  0.282424 -0.653444
			-0.214157 -0.942544 -0.256415
			-0.293253 -0.923435 -0.247529
			-0.387494 -0.822274 -0.416791
			-0.175023 -0.958508 -0.225010
			 0.351622 -0.632695 -0.689970
			 0.525019 -0.564291 -0.637127
			 0.644222 -0.539647 -0.541995
			 0.632083 -0.261648 -0.729391
			 0.306771 -0.784777 -0.538532
			 0.272180 -0.840645 -0.468224
			 0.341348 -0.762935 -0.549009
			 0.056854 -0.918145 -0.392143
			 0.342825 -0.738959 -0.580010
			 0.489694 -0.712617 -0.502372
			 0.343865 -0.915997 -0.206657
			 0.470611 -0.830112 -0.299064
			 0.743276 -0.527048 -0.412021
			 0.600357 -0.442284 -0.666300
			 0.621235 -0.202911 -0.756898
			 0.665470 -0.136254 -0.733884
			 0.380122 -0.492592  0.782854
			 0.331047 -0.781761  0.528448
			 0.231014 -0.710772  0.664407
			 0.612972 -0.787758  0.060845
			 0.424376 -0.832289  0.356651
			 0.695748 -0.695771  0.178429
			 0.250744 -0.582800  0.772963
			 0.342977 -0.593591  0.728022
			 0.510570 -0.560484  0.652055
			 0.672400 -0.528052  0.518690
			 0.790623 -0.430932  0.434986
			 0.696694 -0.323017  0.640529
			 0.073999 -0.197694  0.977467
			 0.276375 -0.404597  0.871733
			-0.760355  0.419243 -0.496080
			-0.597348  0.182480 -0.780946
			-0.320462  0.070606 -0.944626
			-0.377122 -0.032017 -0.925610
			-0.821724  0.433617 -0.369791
			-0.506374  0.862193  0.014417
			-0.276874  0.957404  0.081965
			-0.488089  0.866889  0.101348
			-0.602620  0.797684  0.023443
			-0.926995  0.373416  0.035222
			-0.550394  0.828053  0.106746
			-0.901024  0.427805  0.071684
			-0.457079  0.879745  0.130873
			-0.697953  0.710750  0.087720
			-0.908362  0.386714  0.159157
			-0.804383  0.590408  0.066233
			-0.876504  0.441173  0.192631
			-0.840710  0.541167  0.018595
			-0.616965  0.773639  0.144354
			-0.350644  0.303406 -0.885999
			-0.406845  0.408641 -0.817001
			-0.373475  0.922879  0.093861
			-0.513898  0.721072  0.464720
			-0.162190  0.889332  0.427532
			-0.314541  0.879262  0.357718
			-0.164782  0.976118  0.141562
			 0.223785  0.967443  0.118217
			 0.083131  0.993477  0.078058
			 0.275517  0.865713  0.417888
			 0.365448  0.691392  0.623237
			 0.353466  0.865683  0.354479
			 0.108846  0.663104  0.740571
			 0.503080  0.565685  0.653384
			 0.581537  0.441563  0.683254
			 0.655224  0.340870  0.674158
			 0.622186  0.439384  0.647940
			 0.063059  0.529240  0.846126
			 0.096871  0.714861  0.692524
			 0.025893  0.239691  0.970504
			-0.806596  0.175444 -0.564467
			-0.633725 -0.428634 -0.643945
			-0.814234 -0.045625 -0.578740
			-0.750718  0.363674 -0.551511
			-0.844163  0.251905 -0.473215
			-0.186674 -0.920571 -0.343076
			-0.327498 -0.810237 -0.486068
			-0.609389 -0.526245 -0.593053
			-0.599547 -0.564143 -0.567703
			-0.019214 -0.833298 -0.552490
			 0.630880 -0.595430 -0.497446
			 0.604298 -0.666523 -0.436545
			 0.700440 -0.611884 -0.367398
			 0.732085 -0.488631 -0.474649
			 0.643615 -0.563227 -0.518204
			 0.713937 -0.393697 -0.579048
			 0.757312 -0.132480 -0.639474
			 0.477313 -0.683388 -0.552407
			 0.195611 -0.810765 -0.551721
			 0.438104 -0.533226 -0.723696
			 0.260670 -0.575302 -0.775292
			 0.547955 -0.527209 -0.649458
			 0.740818 -0.642263 -0.196690
			 0.780725 -0.297656 -0.549426
			 0.902084 -0.183189 -0.390750
			 0.921628 -0.306978 -0.237415
			 0.718768 -0.147884 -0.679340
			 0.795648 -0.119291 -0.593897
			 0.680757 -0.099297 -0.725748
			 0.596026 -0.489151  0.636776
			 0.798612 -0.436229  0.414637
			 0.778192 -0.355306  0.517855
			 0.875267 -0.480490 -0.055110
			 0.959683 -0.279599 -0.028860
			 0.406907 -0.453082  0.793186
			 0.559232 -0.559789  0.611470
			 0.536133 -0.510612  0.672188
			 0.719465 -0.503444  0.478450
			 0.846929 -0.347154  0.402736
			 0.836964 -0.411967  0.360242
			 0.918526 -0.322080  0.229290
			 0.914208 -0.330483  0.234530
			 0.340361 -0.067230  0.937888
			 0.498285 -0.245554  0.831514
			-0.499497  0.014295 -0.866197
			-0.554821  0.105720 -0.825226
			-0.609553 -0.130682 -0.781900
			-0.821546  0.151766 -0.549572
			 0.003707  0.999455 -0.032805
			-0.130599  0.986883  0.094901
			 0.020565  0.996303  0.083410
			-0.238765  0.962593  0.128088
			-0.085999  0.975672  0.201664
			-0.906902  0.395048  0.146509
			-0.792598  0.605566  0.071256
			-0.792446  0.605344  0.074751
			-0.262717  0.958876  0.107407
			 0.017079  0.987289  0.158014
			-0.484817  0.867973  0.107590
			-0.868947  0.223883 -0.441371
			-0.885581  0.462262 -0.045384
			-0.886846  0.460623 -0.036482
			-0.899065  0.437202  0.023173
			-0.758031  0.343075 -0.554697
			 0.226368  0.973181 -0.040951
			 0.229882  0.970667 -0.070430
			 0.186825  0.969770 -0.156980
			 0.213375  0.969955 -0.116868
			 0.176958  0.978584 -0.105164
			 0.302266  0.882011  0.361513
			 0.161667  0.985909 -0.042980
			 0.305204  0.759888  0.573952
			 0.195372  0.792598  0.577597
			 0.511773  0.659692  0.550358
			 0.565821  0.716510  0.407994
			 0.702268  0.503111  0.503686
			 0.255820  0.666394  0.700339
			 0.316802  0.398468  0.860732
			-0.936624  0.067748 -0.343724
			-0.860851  0.049178 -0.506474
			-0.774988 -0.047967 -0.630154
			-0.758922  0.271112 -0.592060
			-0.902595 -0.163066 -0.398411
			-0.948511  0.010437 -0.316571
			-0.227801 -0.689724 -0.687304
			-0.528525 -0.470664 -0.706496
			-0.645314 -0.162630 -0.746406
			-0.080149 -0.434402 -0.897146
			 0.658973 -0.592412 -0.463467
			 0.812364 -0.502704 -0.295557
			 0.766035 -0.585729 -0.264785
			 0.840875 -0.365710 -0.398979
			 0.855196 -0.323143 -0.405238
			 0.876422 -0.220770 -0.427955
			 0.774729 -0.005748 -0.632267
			 0.863932 -0.053492 -0.500760
			 0.401846 -0.433208 -0.806753
			 0.414561 -0.438900 -0.797187
			 0.021012 -0.326394 -0.945000
			 0.266363 -0.384971 -0.883656
			 0.528421 -0.524069 -0.667924
			 0.467584 -0.418151 -0.778791
			 0.922896 -0.146739 -0.355993
			 0.861858 -0.028869 -0.506328
			 0.916947 -0.290055  0.274000
			 0.948339 -0.284966  0.139453
			 0.975153 -0.219723 -0.028264
			 0.949036 -0.131875 -0.286249
			 0.634833 -0.302350  0.711036
			 0.780257 -0.418524  0.464798
			 0.836826 -0.430704  0.337959
			 0.884885 -0.359057  0.296743
			 0.984019 -0.177923  0.007131
			 0.992862 -0.110300  0.045368
			 0.661493  0.163355  0.731944
			 0.752451  0.067566  0.655173
			-0.643889 -0.278259 -0.712726
			-0.829807 -0.396907 -0.392282
			-0.853691 -0.243234 -0.460487
			 0.232837  0.963224  0.134115
			-0.755435  0.647627  0.099486
			-0.495237  0.867147  0.052876
			 0.078183  0.978456  0.191080
			-0.167756  0.982447  0.081584
			-0.680926  0.052698 -0.730454
			-0.685116  0.162073 -0.710175
			-0.826135  0.355825 -0.436909
			-0.783963  0.560301 -0.267329
			-0.726572  0.278840 -0.627966
			-0.512410  0.233613 -0.826354
			-0.640197  0.216553 -0.737057
			 0.317519  0.946195  0.062431
			 0.166419  0.985026  0.045045
			 0.032692  0.988733 -0.146075
			 0.147297  0.988761 -0.025595
			 0.528642  0.616131  0.583884
			 0.615599  0.688235  0.383889
			 0.539622  0.721841  0.433306
			 0.789086  0.393345  0.471828
			 0.535008  0.783949  0.314945
			 0.714669  0.607762  0.346229
			 0.649799  0.360522  0.669168
			-0.925166 -0.208644 -0.317074
			-0.697148  0.330807 -0.636043
			-0.820665 -0.084734 -0.565093
			-0.461170 -0.068107 -0.884694
			-0.657584  0.063467 -0.750703
			-0.629229  0.556242 -0.542831
			-0.526283  0.243590 -0.814672
			-0.581070  0.499499 -0.642541
			-0.373956 -0.365484 -0.852396
			-0.220771 -0.066881 -0.973030
			 0.602893 -0.576418 -0.551599
			 0.747462 -0.540293 -0.386503
			 0.754965 -0.595314 -0.275008
			 0.838203 -0.423491 -0.343615
			 0.741562 -0.587404 -0.324102
			 0.738512 -0.650743 -0.176448
			 0.690162 -0.692546 -0.209898
			 0.882347 -0.362867 -0.299652
			 0.883311 -0.329712 -0.333244
			 0.835677  0.053090 -0.546650
			 0.882442 -0.128698 -0.452474
			 0.411201 -0.453219 -0.790890
			 0.158510 -0.145760 -0.976539
			 0.443738 -0.559986 -0.699652
			 0.467244 -0.489643 -0.736161
			 0.922934  0.010248 -0.384823
			 0.966697 -0.018857 -0.255229
			 0.869158 -0.095019  0.485321
			 0.956771 -0.111400  0.268662
			 0.961956 -0.183330  0.202561
			 0.996806  0.012715 -0.078839
			 0.992995  0.109959  0.043253
			 0.974872  0.214702 -0.059389
			 0.772397  0.388810  0.502225
			 0.883020  0.272801  0.381910
			 0.331223  0.909222  0.252205
			 0.215363  0.938778  0.268915
			-0.547067  0.823946 -0.147752
			 0.087687  0.987420  0.131575
			-0.218157  0.975088 -0.040146
			 0.203596  0.951154  0.232068
			-0.455947  0.249102 -0.854436
			-0.315365  0.221271 -0.922813
			-0.423461  0.458276 -0.781450
			-0.155409  0.167683 -0.973514
			-0.258011  0.229997 -0.938366
			 0.155275  0.952719  0.261184
			 0.008223  0.986856  0.161396
			-0.072688  0.995599 -0.059149
			 0.046202  0.998071 -0.041463
			 0.709965  0.539574  0.452559
			 0.738564  0.611153  0.284633
			 0.792010  0.535805  0.292631
			 0.800502  0.444710  0.401782
			 0.921947  0.118457  0.368758
			 0.823880  0.458671  0.332930
			 0.353917  0.916318  0.187361
			 0.616534  0.701927  0.356630
			 0.813181  0.529614  0.241342
			-0.480226  0.582637 -0.655681
			-0.471547  0.642150 -0.604389
			-0.349138  0.266808 -0.898285
			-0.063432  0.158437 -0.985329
			 0.679034 -0.508791 -0.529192
			 0.603515 -0.545806 -0.581262
			 0.636135 -0.691344 -0.342600
			 0.601296 -0.696148 -0.392201
			 0.805476 -0.523121 -0.278482
			 0.799394 -0.590376 -0.111472
			 0.679388 -0.712096 -0.177063
			 0.762813 -0.625094 -0.165451
			 0.613525 -0.716996 -0.330913
			 0.715171 -0.644035 -0.271569
			 0.898863  0.112492 -0.423545
			 0.942026 -0.151043 -0.299621
			 0.294814 -0.290064 -0.910466
			 0.396149 -0.408220 -0.822449
			 0.128795  0.046573 -0.990577
			 0.219046 -0.130303 -0.966975
			 0.302297 -0.253190 -0.918973
			 0.422030 -0.482340 -0.767619
			 0.963987  0.079757 -0.253707
			 0.973049  0.072741 -0.218826
			 0.951629  0.162744  0.260607
			 0.973497  0.199664 -0.111523
			 0.937061  0.345980  0.047065
			 0.967349  0.246604 -0.058504
			 0.945799  0.324161  0.019614
			 0.890365  0.386043  0.241289
			 0.899971  0.404504  0.162569
			 0.219584  0.924666  0.311086
			 0.171861  0.930464  0.323574
			 0.136561  0.934712  0.328123
			 0.127011  0.935566  0.329522
			-0.282216  0.800921 -0.528091
			 0.185483  0.965154  0.184589
			 0.171581  0.938372 -0.300030
			-0.016516  0.997239 -0.072397
			-0.123560  0.877232 -0.463892
			-0.146598  0.210541 -0.966531
			-0.249827  0.398939 -0.882289
			-0.028731  0.171841 -0.984706
			-0.078154  0.310808 -0.947254
			-0.176060  0.542978 -0.821083
			 0.044840  0.100095 -0.993967
			 0.154730  0.948292  0.277130
			 0.085525  0.942041  0.324415
			 0.052961  0.960117  0.274537
			-0.006467  0.992504  0.122038
			 0.236599  0.968560  0.076888
			 0.927226  0.346943  0.141006
			 0.908249  0.278237  0.312519
			 0.547004  0.793003  0.268205
			 0.688209  0.672108  0.273201
			 0.870628  0.368383  0.326039
			 0.935000  0.172913  0.309639
			 0.940009 -0.047798  0.337786
			 0.958801  0.235266  0.159217
			 0.968795  0.150799  0.196713
			 0.920514  0.372508  0.117864
			 0.949634  0.285339  0.129526
			-0.335388  0.659375 -0.672859
			-0.271081  0.404375 -0.873497
			-0.285044  0.648965 -0.705404
			-0.377795  0.776792 -0.503850
			-0.385540  0.738884 -0.552638
			-0.217925  0.501432 -0.837302
			-0.038865  0.431002 -0.901514
			 0.049282  0.221075 -0.974011
			 0.631979 -0.665227 -0.397587
			 0.756479 -0.484322 -0.439512
			 0.884242 -0.457526 -0.093739
			 0.877175 -0.473917  0.077243
			 0.910450 -0.407676  0.069870
			 0.813451 -0.578793 -0.057412
			 0.909160 -0.387797 -0.151793
			 0.968537 -0.177644 -0.174297
			 0.955716 -0.261805 -0.134407