<?xml version="1.0"?>
<VTKFile type="PolyData" version="0.1" byte_order="LittleEndian" compressor="vtkZLibDataCompressor">
	<PolyData>
		<Piece NumberOfPoints="774" NumberOfVerts="0" NumberOfLines="0" NumberOfStrips="0" NumberOfPolys="1554">
		<PointData Normals="Normals">
		<DataArray type="Float32" Name="Normals" NumberOfComponents="3" format="ascii">
			-0.468121 -0.769060  0.435211
			-0.642454 -0.615427  0.456621
			-0.479878 -0.714912  0.508545
			-0.308175 -0.816099  0.488887
			-0.277410 -0.896143  0.346369
			-0.475659 -0.829407  0.292974
			-0.640528 -0.756905  0.129686
			-0.520472 -0.573422  0.632689
			-0.578628 -0.456631  0.675779
			-0.755273 -0.496663  0.427654
			-0.837291 -0.522963  0.159538
			-0.791685 -0.608998  0.048548
			-0.635583 -0.580088  0.509443
			-0.392369 -0.823061  0.410630
			-0.097068 -0.928838  0.357544
			 0.067631 -0.969221  0.236723
			-0.140508 -0.989750  0.025550
			-0.102205 -0.980092  0.170217
			-0.554829 -0.831667 -0.022225
			-0.638008 -0.770005  0.006119
			-0.566744 -0.510956  0.646317
			-0.534908 -0.462427  0.707131
			-0.577453 -0.437344  0.689404
			-0.753261 -0.427099  0.500185
			-0.907604 -0.400453  0.126067
			-0.726557 -0.670888  0.148409
			-0.895578 -0.443214 -0.038748
			-0.707301 -0.677538  0.201662
			-0.649204 -0.424737  0.630978
			-0.823070 -0.431956  0.368741
			-0.837581 -0.387941  0.384654
			-0.709058 -0.699455  0.089440
			-0.545771 -0.820790  0.168631
			-0.171890 -0.937488  0.302607
			-0.227870 -0.946935  0.226693
			 0.044439 -0.997440 -0.056029
			 0.373358 -0.924963  0.071040
			 0.330905 -0.941920 -0.057351
			 0.396164 -0.914463  0.082533
			 0.230264 -0.953295  0.195464
			-0.399171 -0.912622 -0.088230
			 0.456448 -0.887085 -0.068822
			 0.269891 -0.962735  0.017349
			 0.036209 -0.970825  0.237041
			-0.205636 -0.835987  0.508762
			-0.206422 -0.927226  0.312477
			-0.575062 -0.413187  0.706102
			-0.811272 -0.379383  0.444866
			-0.903430 -0.395612  0.165245
			-0.963018 -0.243786  0.114740
			-0.792273 -0.550320  0.263535
			-0.187071 -0.792245  0.580820
			-0.398010 -0.739475  0.542922
			-0.919736 -0.392455  0.008039
			-0.778171 -0.515215 -0.359170
			-0.885139 -0.301382  0.354539
			-0.861761 -0.216908  0.458606
			-0.582988 -0.348927  0.733741
			-0.933727 -0.342866  0.102937
			-0.944694 -0.260482  0.199252
			-0.694288 -0.628553 -0.350550
			-0.735049 -0.528811 -0.424336
			-0.429466 -0.888284 -0.162822
			-0.591814 -0.627109 -0.506450
			-0.179481 -0.895884 -0.406422
			 0.312626 -0.919873 -0.236852
			 0.105068 -0.711203 -0.695091
			 0.586569 -0.808725 -0.043586
			 0.527395 -0.750214 -0.398791
			 0.573289 -0.814649 -0.087671
			 0.527863 -0.844428 -0.091117
			 0.505974 -0.853513 -0.124524
			 0.540620 -0.837469 -0.079843
			 0.515952 -0.851526 -0.093261
			 0.515668 -0.843774  0.148769
			 0.061266 -0.866668  0.495110
			 0.239111 -0.840115  0.486860
			 0.154325 -0.765334  0.624858
			-0.709035 -0.352439  0.610783
			-0.933205 -0.241635  0.265972
			-0.841933 -0.424863  0.332627
			-0.489419 -0.575031  0.655598
			-0.978139 -0.102603  0.180880
			-0.916066 -0.245880  0.316806
			-0.361293 -0.638704  0.679356
			 0.040008 -0.682700  0.729602
			-0.119325 -0.670955  0.731834
			-0.859598 -0.259448 -0.440203
			-0.577051 -0.348984 -0.738392
			-0.995356 -0.027880  0.092137
			-0.769766 -0.203048  0.605171
			-0.962262  0.032143  0.270221
			-0.542299 -0.333001  0.771377
			-0.541076 -0.355989  0.761912
			-0.994618 -0.100110 -0.026720
			-0.955329 -0.031381 -0.293873
			-0.987914  0.006607 -0.154865
			-0.278520 -0.507394 -0.815462
			-0.387415 -0.349661 -0.853022
			-0.047427 -0.420373 -0.906111
			 0.390954 -0.411815 -0.823143
			 0.248787 -0.149799 -0.956904
			 0.617473 -0.686275 -0.384387
			 0.595923 -0.667794 -0.446012
			 0.421139 -0.378626 -0.824187
			 0.515733 -0.828042 -0.219922
			 0.483594 -0.851301 -0.203528
			 0.628516 -0.775813  0.055521
			 0.721293 -0.690990  0.047627
			 0.421920 -0.763727  0.488574
			 0.607194 -0.666996  0.431777
			 0.320130 -0.723919  0.611112
			 0.186948 -0.652385  0.734469
			 0.334751 -0.678912  0.653467
			-0.804160 -0.349659  0.480692
			-0.707725 -0.274234  0.651092
			-0.837246 -0.270864  0.475029
			-0.948578 -0.185965  0.256159
			-0.564087 -0.512020  0.647798
			-0.671084 -0.399031  0.624836
			-0.165431 -0.605783  0.778241
			-0.090122 -0.573841  0.813993
			-0.264232 -0.496689  0.826729
			-0.922013 -0.091459  0.376200
			-0.891875 -0.133001  0.432284
			-0.933992 -0.056363  0.352821
			-0.682031 -0.110114 -0.722986
			-0.824727  0.018370 -0.565233
			-0.411346 -0.115026 -0.904192
			-0.199592 -0.161603 -0.966461
			-0.986703  0.124214 -0.104822
			-0.885347  0.022963  0.464363
			-0.948198  0.219420  0.229731
			-0.972680  0.232110  0.004239
			-0.935196  0.058289 -0.349299
			-0.933536  0.081638 -0.349065
			-0.030268 -0.160186 -0.986623
			 0.268978 -0.033878 -0.962550
			 0.223494 -0.091433 -0.970407
			 0.136590 -0.025497 -0.990300
			 0.365474 -0.557798 -0.745178
			 0.339234 -0.301470 -0.891087
			 0.442161 -0.687531 -0.576017
			 0.561766 -0.773878 -0.292458
			 0.504078 -0.629355 -0.591454
			 0.639586 -0.768527 -0.017174
			 0.710174 -0.653872  0.260970
			 0.754977 -0.631685  0.176021
			 0.656273 -0.690963  0.303111
			 0.732154 -0.560800  0.386593
			 0.422194 -0.606245  0.673957
			 0.119200 -0.565404  0.816155
			 0.297354 -0.604613  0.738935
			 0.264579 -0.534575  0.802638
			-0.809834 -0.180259  0.558280
			-0.662605 -0.282730  0.693555
			 0.083773 -0.497065  0.863660
			-0.197337 -0.435496  0.878294
			-0.823207 -0.088849  0.560746
			-0.915723  0.107147  0.387262
			-0.923861 -0.006748  0.382669
			-0.760494  0.077261 -0.644732
			-0.569361  0.050818 -0.820515
			-0.387868  0.072235 -0.918880
			-0.153985 -0.010126 -0.988021
			-0.006321  0.030954 -0.999501
			 0.043248 -0.015916 -0.998938
			-0.893697  0.298191 -0.335243
			-0.907295  0.344218 -0.241514
			-0.927242  0.276619  0.252397
			-0.839244 -0.081206  0.537658
			-0.927462  0.371263  0.044473
			-0.895586  0.416106  0.157420
			-0.862475  0.487275 -0.136747
			-0.815018  0.108422 -0.569202
			-0.761793  0.029167 -0.647164
			 0.130135  0.028546 -0.991085
			 0.117948 -0.043078 -0.992085
			 0.159251 -0.083908 -0.983666
			 0.063348 -0.154513 -0.985958
			 0.226026 -0.252758 -0.940758
			 0.282523 -0.404571 -0.869772
			 0.114341 -0.214963 -0.969906
			 0.530594 -0.531433 -0.660340
			 0.659695 -0.650400 -0.376540
			 0.683948 -0.729529  0.001569
			 0.774107 -0.511631  0.372817
			 0.778355 -0.555164  0.293182
			 0.721301 -0.474569  0.504490
			 0.690309 -0.669474  0.274368
			 0.580973 -0.515296  0.630032
			 0.715558 -0.446701  0.537062
			 0.758319 -0.482942  0.437857
			 0.403395 -0.524460  0.749810
			 0.503435 -0.517535  0.691890
			 0.320272 -0.494521  0.808007
			-0.715233 -0.245790  0.654240
			-0.350040 -0.326616  0.877948
			 0.341401 -0.472654  0.812431
			 0.260186 -0.436920  0.861048
			 0.026065 -0.444153  0.895572
			-0.069824 -0.393652  0.916604
			-0.857541 -0.153311  0.491039
			-0.958326  0.071544  0.276573
			-0.974738  0.038380  0.220028
			-0.799141 -0.111432  0.590726
			-0.235502  0.083897 -0.968246
			-0.048429  0.038419 -0.998088
			-0.008517  0.032309 -0.999442
			 0.018787 -0.115372 -0.993145
			-0.925509  0.351701 -0.140495
			-0.793606  0.581171 -0.180082
			-0.920838  0.241044  0.306521
			-0.836880  0.546862  0.023976
			-0.868757  0.495236 -0.001628
			-0.899860  0.424023  0.102253
			-0.795443  0.587148 -0.150092
			-0.869627 -0.072632  0.488337
			-0.745730  0.665059 -0.039794
			-0.980492  0.196431  0.007044
			-0.928432  0.136289 -0.345600
			-0.210900  0.013734 -0.977411
			-0.490187  0.062945 -0.869341
			 0.044319 -0.177281 -0.983162
			 0.357434 -0.278264 -0.891521
			 0.153448 -0.148870 -0.976878
			 0.156342 -0.145620 -0.976909
			 0.298782 -0.199174 -0.933305
			 0.546595 -0.439541 -0.712768
			 0.724655 -0.617143 -0.306610
			 0.685437 -0.533959 -0.495040
			 0.747113 -0.656957 -0.101143
			 0.690477 -0.514414  0.508548
			 0.730585 -0.412775  0.543932
			 0.714571 -0.431157  0.550901
			 0.718922 -0.390236  0.575210
			 0.758175 -0.625919 -0.182747
			 0.775958 -0.576490  0.256024
			 0.745120 -0.518785  0.419117
			 0.651738 -0.414863  0.634922
			 0.550693 -0.451177  0.702265
			 0.464922 -0.454510  0.759782
			-0.507021 -0.158203  0.847291
			-0.171367 -0.330296  0.928191
			 0.466387 -0.426443  0.775003
			 0.310413 -0.421017  0.852284
			 0.103009 -0.395560  0.912645
			-0.832944 -0.267762  0.484261
			-0.957308 -0.105831  0.268999
			-0.971117 -0.008031  0.238469
			-0.796029  0.051295  0.603081
			-0.114506 -0.002823 -0.993419
			-0.024641 -0.017079 -0.999551
			-0.108457 -0.093657 -0.989679
			-0.060797 -0.128479 -0.989847
			-0.037864 -0.095472 -0.994712
			 0.025954 -0.136252 -0.990334
			 0.114734 -0.120802 -0.986024
			-0.937532  0.330965 -0.107220
			-0.873677  0.474989  0.105234
			-0.743896  0.666971  0.042051
			-0.908750  0.234132  0.345479
			-0.591708  0.785577 -0.180969
			-0.595100  0.737784 -0.318638
			-0.692913  0.682005 -0.233969
			-0.876066  0.463400  0.133302
			-0.812887  0.565940 -0.137570
			-0.720124  0.599277 -0.349699
			-0.899819  0.280210  0.334377
			-0.528560  0.720203 -0.449369
			-0.596498  0.640638 -0.483501
			-0.871782  0.035818  0.488582
			-0.651811  0.757526  0.036000
			-0.672413  0.224057 -0.705450
			-0.245011  0.049300 -0.968266
			 0.235018 -0.150148 -0.960324
			 0.213824 -0.074826 -0.974002
			 0.455184 -0.283770 -0.843968
			 0.320408 -0.201697 -0.925558
			 0.418103 -0.267115 -0.868239
			 0.567605 -0.385454 -0.727496
			 0.666551 -0.498188 -0.554544
			 0.467720 -0.400326 -0.788021
			 0.760386 -0.468135  0.450181
			 0.729144 -0.361364  0.581176
			 0.717814 -0.363240  0.593969
			 0.708337 -0.367684  0.602551
			 0.609636 -0.390279  0.689946
			 0.689165 -0.395427  0.607197
			 0.728072 -0.380695  0.570072
			 0.804414 -0.579889  0.129022
			 0.741035 -0.646780 -0.180397
			 0.585085 -0.591815 -0.554464
			-0.673393  0.153566  0.723159
			-0.459971 -0.091983  0.883157
			 0.061452 -0.406521  0.911573
			 0.018381 -0.418044  0.908241
			-0.113051 -0.364676  0.924246
			-0.491873 -0.022724  0.870370
			 0.475462 -0.429851  0.767571
			 0.263715 -0.416363  0.870113
			 0.265524 -0.447227  0.854099
			-0.866023  0.078086  0.493869
			-0.122498 -0.002919 -0.992464
			-0.196529 -0.027746 -0.980105
			-0.311621  0.087422 -0.946176
			-0.098182 -0.053844 -0.993711
			 0.052295 -0.074153 -0.995875
			-0.013754 -0.032242 -0.999385
			-0.035519  0.067612 -0.997079
			 0.103203  0.016231 -0.994528
			 0.195755  0.031010 -0.980163
			 0.229308  0.015221 -0.973235
			-0.791939  0.375942 -0.481144
			-0.891562  0.450251  0.048903
			-0.821249  0.490298  0.291816
			-0.540782  0.818812 -0.192618
			-0.680132  0.638179 -0.360760
			-0.822177  0.569223  0.003011
			-0.882038  0.299478  0.363762
			-0.864400  0.427699  0.264360
			-0.817284  0.491913 -0.300113
			-0.822007  0.136020  0.552994
			-0.672212  0.615047 -0.412126
			-0.820586  0.556612 -0.129695
			-0.930914  0.325233 -0.166202
			-0.766262  0.077442  0.637844
			-0.805807  0.558633  0.196480
			-0.426406  0.159344 -0.890386
			-0.586839  0.313050 -0.746740
			 0.249283 -0.132536 -0.959319
			 0.175732  0.075805 -0.981515
			 0.185356 -0.010878 -0.982611
			 0.130887  0.066412 -0.989170
			 0.270231 -0.186036 -0.944651
			 0.347256 -0.276180 -0.896180
			 0.482062 -0.451191 -0.751028
			 0.778505 -0.587209  0.221621
			 0.737015 -0.428696  0.522521
			 0.715049 -0.385162  0.583399
			 0.715736 -0.371970  0.591066
			 0.598503 -0.488094  0.635263
			 0.703535 -0.441391  0.556967
			 0.724421 -0.428356  0.540115
			 0.724775 -0.426178  0.541363
			 0.738892 -0.662423 -0.123430
			 0.698091 -0.491153 -0.520996
			-0.714373  0.110490  0.690988
			 0.053175 -0.397526  0.916049
			 0.134772 -0.462895  0.876108
			-0.333021 -0.198241  0.921845
			 0.051598 -0.471187  0.880523
			-0.690491  0.050436  0.721580
			-0.552465 -0.023955  0.833192
			 0.402626 -0.513140  0.758010
			 0.304120 -0.486387  0.819109
			-0.157693  0.100546 -0.982356
			-0.523389  0.219962 -0.823214
			-0.538226  0.269817 -0.798443
			-0.260091  0.210730 -0.942309
			 0.191628  0.178250 -0.965145
			-0.009134  0.202612 -0.979217
			-0.076357  0.168890 -0.982673
			-0.067205  0.290405 -0.954541
			 0.240673  0.126544 -0.962322
			 0.232853  0.196611 -0.952430
			-0.834236  0.487632 -0.257422
			-0.860738  0.448483  0.240819
			-0.883420  0.434494  0.175452
			-0.869737  0.354584  0.343261
			-0.855574  0.516948 -0.027513
			-0.897704  0.437394 -0.053046
			-0.943800  0.327543  0.044245
			-0.851733  0.490795  0.183496
			-0.836432  0.533518  0.125458
			-0.827572  0.248257  0.503482
			-0.844955  0.411791  0.341290
			-0.931157  0.351098  0.098368
			-0.998042  0.050557 -0.036840
			-0.712238  0.067657  0.698669
			-0.954556  0.213324  0.208126
			-0.982520 -0.049203  0.179538
			-0.943196  0.271015  0.192176
			-0.701006  0.353067 -0.619624
			-0.101432  0.145423 -0.984156
			 0.066117  0.020214 -0.997607
			 0.329749 -0.103988 -0.938324
			 0.398987 -0.016124 -0.916815
			 0.202230 -0.016901 -0.979192
			 0.506956 -0.284587 -0.813638
			 0.439105 -0.208203 -0.873978
			 0.727554 -0.394280 -0.561434
			 0.776298 -0.563684  0.282172
			 0.723808 -0.416367  0.550219
			 0.818228 -0.468430  0.333279
			 0.712999 -0.414963  0.565189
			 0.709432 -0.404671  0.577017
			 0.520662 -0.619648  0.587323
			 0.687628 -0.497466  0.528863
			 0.715088 -0.520582  0.466522
			 0.739211 -0.456161  0.495464
			 0.701197 -0.483095  0.524349
			 0.728245 -0.465118  0.503313
			 0.859298 -0.490186 -0.146032
			 0.905750 -0.410314 -0.106113
			-0.249060 -0.173820  0.952762
			-0.432687 -0.090284  0.897012
			 0.288652 -0.612692  0.735723
			-0.146628 -0.403337  0.903227
			-0.500183 -0.052015  0.864356
			-0.136866  0.351721 -0.926045
			-0.423427  0.385055 -0.820026
			-0.813556  0.429487 -0.392005
			-0.686837  0.455907 -0.566042
			-0.248237  0.347353 -0.904281
			 0.049315  0.376668 -0.925035
			 0.331942  0.367617 -0.868718
			 0.369957  0.354439 -0.858781
			-0.110037  0.467487 -0.877125
			 0.016273  0.396723 -0.917794
			-0.877618  0.455580  0.149109
			-0.854379  0.494923 -0.158394
			-0.914990  0.382569  0.128194
			-0.958714  0.215572  0.185462
			-0.982719  0.121033  0.140049
			-0.766022  0.607100  0.211285
			-0.743852  0.646689  0.168755
			-0.795609  0.527561  0.297803
			-0.806140  0.300852  0.509535
			-0.770765  0.475862  0.423647
			-0.946127  0.178192  0.270355
			-0.744231  0.244842  0.621428
			-0.642309  0.209360  0.737297
			-0.947090  0.051319  0.316840
			-0.930203 -0.018621  0.366574
			-0.972177  0.044061  0.230066
			-0.120223  0.282837 -0.951604
			-0.104701  0.115270 -0.987801
			-0.242405  0.152548 -0.958107
			-0.164804  0.120856 -0.978894
			-0.025495  0.027731 -0.999290
			 0.127165  0.087985 -0.987972
			 0.295697  0.031670 -0.954757
			 0.509772 -0.117355 -0.852268
			 0.465580 -0.028752 -0.884539
			 0.688846 -0.139030 -0.711450
			 0.915564 -0.319600 -0.244127
			 0.899107 -0.363050  0.244541
			 0.695835 -0.436814  0.570095
			 0.686318 -0.449337  0.571896
			 0.751904 -0.429236  0.500397
			 0.784887 -0.428416  0.447675
			 0.684346 -0.459817  0.565896
			 0.664933 -0.580954  0.469422
			 0.635944 -0.653173  0.411023
			 0.552193 -0.699425  0.453748
			 0.491915 -0.596185  0.634494
			 0.318638 -0.676902  0.663531
			 0.717092 -0.521503  0.462400
			 0.690353 -0.623240  0.367403
			 0.676686 -0.610938  0.410913
			 0.695415 -0.571324  0.435875
			 0.672602 -0.546739  0.498682
			 0.148728 -0.622821  0.768098
			-0.326794 -0.119951  0.937453
			-0.439260 -0.107072  0.891956
			-0.080327 -0.352448  0.932378
			-0.606753  0.154309  0.779769
			-0.465787  0.166034  0.869181
			-0.260024  0.527177 -0.808994
			-0.306913  0.462516 -0.831795
			-0.503915  0.564012 -0.654187
			-0.702010  0.622396 -0.346130
			 0.083085  0.438559 -0.894854
			 0.353432  0.379577 -0.854989
			 0.301144  0.329205 -0.894950
			-0.126762  0.355732 -0.925952
			-0.776702  0.616647 -0.128374
			-0.953534  0.246281 -0.173547
			-0.705554  0.475080 -0.525825
			-0.990223  0.123055  0.065702
			-0.738541  0.618173  0.269108
			-0.720914  0.671256  0.172335
			-0.759342  0.631478  0.156957
			-0.760122  0.509140  0.403723
			-0.773582  0.580542  0.254052
			-0.830605  0.387629  0.399799
			-0.729568  0.473776  0.493220
			-0.721270  0.545299  0.427104
			-0.929885  0.307592  0.201743
			-0.654182  0.383852  0.651693
			-0.650262  0.513491  0.559898
			-0.620937  0.391439  0.679126
			-0.541870  0.351377  0.763486
			-0.932694  0.187378  0.308174
			-0.966198  0.108913  0.233666
			-0.951328  0.293408  0.094271
			 0.146051  0.288322 -0.946330
			-0.224505  0.019849 -0.974271
			-0.011112  0.140024 -0.990086
			-0.151250  0.095750 -0.983847
			 0.015621  0.153704 -0.987993
			-0.081551  0.195277 -0.977352
			 0.209978  0.199728 -0.957088
			 0.301052  0.185849 -0.935322
			 0.498742  0.111282 -0.859577
			 0.697742  0.011676 -0.716254
			 0.632800 -0.015725 -0.774155
			 0.751739  0.070321 -0.655701
			 0.847929 -0.031441 -0.529176
			 0.954671 -0.193003 -0.226614
			 0.926991 -0.327774  0.182354
			 0.684479 -0.484123  0.545081
			 0.879913 -0.380672  0.284328
			 0.890453 -0.327732  0.315731
			 0.736801 -0.450864  0.503831
			 0.681724 -0.509898  0.524648
			 0.644928 -0.722971  0.247752
			 0.683011 -0.654138  0.324959
			 0.527121 -0.721052  0.449697
			 0.371783 -0.770932  0.517146
			 0.125001 -0.479468  0.868611
			 0.246836 -0.588285  0.770060
			 0.744377 -0.561601  0.361257
			 0.762634 -0.606918  0.223697
			 0.775073 -0.447502  0.446098
			-0.163670 -0.108510  0.980529
			-0.388441  0.126982  0.912683
			-0.226611  0.119990  0.966566
			 0.039639 -0.154420  0.987210
			-0.440533  0.433798  0.785971
			-0.334104  0.444423  0.831182
			-0.495849  0.638339 -0.588776
			-0.573096  0.364354 -0.734035
			-0.382016  0.326845 -0.864428
			-0.198952  0.171933 -0.964809
			 0.204293  0.373683 -0.904779
			 0.019410  0.297630 -0.954484
			 0.082767  0.057971 -0.994881
			-0.932770  0.350322 -0.084938
			-0.880389  0.331619 -0.339035
			-0.599034  0.435815 -0.671732
			-0.795474  0.364545 -0.484075
			-0.804317  0.425466 -0.414793
			-0.927960  0.364239  0.078868
			-0.762631  0.646076  0.031303
			-0.651082  0.663882  0.367903
			-0.741617  0.640940  0.197990
			-0.870789  0.444853  0.209364
			-0.683319  0.577359  0.446914
			-0.783507  0.545232  0.298059
			-0.724935  0.604805  0.329665
			-0.660348  0.609931  0.438091
			-0.701884  0.612323  0.363896
			-0.571186  0.536804  0.620958
			-0.932519  0.357769 -0.049098
			 0.096273 -0.058475 -0.993636
			 0.117609 -0.259667 -0.958510
			 0.172696 -0.038648 -0.984217
			 0.016988  0.068624 -0.997498
			 0.059867  0.210642 -0.975728
			 0.016229  0.208489 -0.977890
			 0.110391  0.345395 -0.931942
			 0.331468  0.402622 -0.853244
			 0.481005  0.247634 -0.841019
			 0.765426  0.124725 -0.631321
			 0.912050  0.015308 -0.409793
			 0.937168  0.070600 -0.341661
			 0.978261 -0.100316 -0.181500
			 0.976371 -0.202342 -0.075870
			 0.733795 -0.474254  0.486445
			 0.891546 -0.250077  0.377635
			 0.985590  0.020205  0.167938
			 0.978869  0.061989 -0.194866
			 0.759362 -0.424191  0.493387
			 0.784962 -0.399544  0.473496
			 0.748421 -0.643309  0.161307
			 0.608749 -0.684443  0.401201
			 0.412025 -0.582774  0.700435
			 0.459637 -0.319087  0.828805
			 0.294733 -0.637477  0.711868
			 0.182704 -0.322294  0.928841
			 0.280448 -0.260696  0.923789
			 0.882197 -0.408272  0.234612
			 0.930096 -0.239090  0.278851
			 0.928683 -0.284135  0.238358
			 0.951566 -0.291066  0.099008
			 0.810377 -0.546925  0.210146
			 0.958433 -0.257841  0.122162
			 0.942627 -0.145242  0.300599
			-0.029489  0.294175  0.955296
			 0.212870 -0.018937  0.976897
			-0.485997  0.634508  0.601005
			-0.370561  0.563325  0.738478
			-0.318116  0.523587  0.790354
			-0.111249  0.487792  0.865842
			-0.269036  0.501461  0.822287
			-0.417486  0.197294 -0.887007
			-0.732489  0.471880 -0.490703
			-0.657598  0.376361 -0.652623
			-0.495626  0.314406 -0.809632
			-0.164347 -0.164145 -0.972649
			 0.092254 -0.365692 -0.926153
			-0.791845  0.547938 -0.269715
			-0.880708  0.436329 -0.184311
			-0.607146  0.689400  0.395095
			-0.559233  0.692654  0.455508
			-0.695174  0.641670  0.324027
			-0.892231  0.451427  0.011747
			-0.832061  0.554471 -0.015384
			-0.575256  0.742858  0.342407
			-0.764424  0.616258  0.189423
			-0.661157  0.732595  0.161789
			-0.674268  0.601891  0.427889
			-0.680102  0.623406  0.385781
			-0.595856  0.743801  0.302847
			-0.521193  0.759988  0.388300
			-0.621784  0.701763  0.347726
			 0.362466 -0.179678 -0.914513
			 0.247958  0.056212 -0.967139
			 0.158091 -0.293482 -0.942802
			 0.209595  0.460138 -0.862753
			 0.212534  0.690577 -0.691326
			 0.617728  0.479620 -0.623199
			 0.515968  0.633318 -0.576789
			 0.843027  0.464765 -0.270737
			 0.986422  0.055682 -0.154504
			 0.942317  0.053720 -0.330384
			 0.943540  0.095922 -0.317066
			 0.914731 -0.181382  0.361066
			 0.983681  0.120825  0.133311
			 0.946341  0.296132 -0.129399
			 0.916378  0.332276 -0.223256
			 0.922286 -0.172248  0.346005
			 0.755514 -0.547131  0.360342
			 0.818467 -0.283398  0.499798
			 0.538271 -0.314641  0.781835
			 0.358159 -0.181337  0.915882
			 0.403679  0.106278  0.908707
			 0.237670  0.160323  0.958024
			 0.994336 -0.065941  0.083348
			 0.994091  0.105802 -0.024272
			 0.982192  0.177728  0.060925
			 0.980942  0.185253 -0.058594
			 0.999122  0.037535 -0.018594
			 0.842902  0.025565  0.537460
			 0.871233  0.250677  0.422035
			 0.974170  0.197689  0.109139
			-0.524255  0.615568  0.588416
			-0.408649  0.553080  0.726022
			-0.153796  0.400661  0.903226
			-0.247709  0.553344  0.795268
			-0.374997  0.178634 -0.909652
			-0.623289  0.485455 -0.613062
			-0.614645  0.722129 -0.317398
			-0.580995  0.668694 -0.463997
			-0.485576  0.486252 -0.726481
			-0.368452  0.366660 -0.854285
			-0.268841  0.340881 -0.900847
			-0.122874 -0.223965 -0.966820
			-0.742641  0.664947 -0.079556
			-0.647783  0.602259  0.466542
			-0.396081  0.910210  0.120990
			-0.380089  0.904598  0.192962
			-0.483603  0.860560  0.159891
			-0.511613  0.853638 -0.097750
			-0.523694  0.651116  0.549356
			-0.559291  0.591613  0.580678
			-0.600437  0.675311  0.428288
			-0.372299  0.913134  0.166073
			-0.059272  0.984514  0.164979
			-0.246811  0.865630  0.435626
			-0.066666 -0.122440 -0.990234
			 0.226127 -0.029159 -0.973661
			 0.366777  0.210331 -0.906220
			 0.343311  0.189681 -0.919869
			 0.336170  0.479645 -0.810512
			 0.498350  0.764946 -0.408051
			 0.521084  0.568243 -0.636844
			 0.722670  0.681312 -0.116458
			 0.765211  0.629944 -0.132748
			 0.947842  0.283022  0.146611
			 0.789285  0.608441 -0.082642
			 0.868571  0.491008 -0.067050
			 0.900054  0.427506 -0.084509
			 0.555059  0.080262  0.827930
			 0.578607  0.308368  0.755065
			 0.409684  0.167119  0.896789
			 0.574161  0.246782  0.780665
			 0.088987  0.270397  0.958628
			 0.976425  0.189099 -0.104091
			 0.930315  0.320786 -0.177794
			 0.879124  0.468811 -0.085773
			 0.880260  0.420027 -0.220726
			 0.940151  0.284967 -0.186842
			 0.831886  0.478538 -0.281012
			 0.968782  0.210008 -0.131751
			 0.901880  0.390823  0.184039
			 0.669818  0.261128  0.695094
			 0.609260  0.273846  0.744184
			-0.375808  0.669116  0.641134
			 0.051251  0.453891  0.889582
			-0.086778  0.502009  0.860498
			-0.151895  0.763999  0.627084
			 0.280302  0.609861  0.741283
			-0.158991  0.327533 -0.931367
			-0.495891  0.630083 -0.597569
			-0.405222  0.852549 -0.330083
			-0.261477  0.784626 -0.562131
			-0.298978  0.572160 -0.763705
			-0.148824  0.476211 -0.866646
			 0.097382  0.418704 -0.902887
			-0.073364  0.996938 -0.027049
			-0.112713  0.989604 -0.089329
			 0.075904  0.984392 -0.158779
			-0.319989  0.947276  0.016588
			-0.232328  0.947847 -0.218199
			 0.210382  0.976722 -0.041869
			 0.442892  0.896201 -0.025896
			 0.121441  0.983510  0.134019
			 0.144811  0.927965  0.343380
			 0.549455  0.602768 -0.578593
			 0.330225  0.729457 -0.599036
			 0.115456  0.589537 -0.799447
			 0.731068  0.596041 -0.332077
			 0.740616  0.651292 -0.165250
			 0.835975  0.524344 -0.161892
			 0.806572  0.549768 -0.217250
			 0.283537  0.419852  0.862166
			 0.538752  0.299871  0.787289
			 0.877332  0.387265 -0.283397
			 0.836886  0.493818 -0.236147
			 0.758809  0.596574 -0.261360
			 0.796788  0.544466 -0.262079
			 0.728007  0.433225  0.531340
			 0.857381  0.507553  0.085368
			 0.676330  0.255200  0.690979
			 0.239715  0.416241  0.877086
			 0.697512  0.270922  0.663384
			 0.315535  0.876720  0.363042
			 0.751807  0.394997  0.527980
			 0.564984  0.514950  0.644685
			 0.791190  0.592240  0.152544
			 0.815958  0.484027  0.316117
			-0.206695  0.884741 -0.417745
			 0.013019  0.668833 -0.743298
			 0.057177  0.864036 -0.500173
			 0.201543  0.811449 -0.548573
			 0.291700  0.913781 -0.282692
			 0.297612  0.932411 -0.205026
			 0.052758  0.943612 -0.326823
			 0.256441  0.923821 -0.284242
			 0.463689  0.835901 -0.293703
			 0.439116  0.844582 -0.306362
			 0.609296  0.758059 -0.232606
			 0.650771  0.756681 -0.062690
			 0.427665  0.886818  0.175091
			 0.612922  0.662259 -0.430975
			 0.686284  0.565596 -0.457292
			 0.398836  0.816547 -0.417350
			 0.550990  0.739240 -0.387214
			 0.763212  0.572656 -0.299286
			 0.784619  0.548141 -0.289680
			 0.839635  0.466801 -0.277687
			 0.749259  0.606971 -0.264948
			 0.768404  0.566676 -0.297379
			 0.734657  0.493300  0.465761
			 0.879370  0.475094  0.031524
			 0.255167  0.866481 -0.429070
			 0.645121  0.694317 -0.318970
			 0.274271  0.888612 -0.367619
			 0.647896  0.689871 -0.322967
			 0.712656  0.628203 -0.312221
			 0.717790  0.617553 -0.321568
		</DataArray>
	</PointData>
	<Points>
		<DataArray type="Float32" NumberOfComponents="3" format="ascii">
			-0.014150 -0.014862 -0.002244
			-0.014511 -0.014368 -0.001904
			-0.015101 -0.015242 -0.003472
			-0.014462 -0.015546 -0.003454
			-0.013587 -0.015485 -0.002926
			-0.013691 -0.015215 -0.002341
			-0.013865 -0.014864 -0.001781
			-0.015399 -0.014220 -0.002623
			-0.015351 -0.013745 -0.002275
			-0.014890 -0.013530 -0.001518
			-0.014522 -0.013895 -0.001377
			-0.013957 -0.014797 -0.001232
			-0.016145 -0.014297 -0.003308
			-0.014770 -0.015883 -0.004295
			-0.014053 -0.015896 -0.003875
			-0.012778 -0.015809 -0.003695
			-0.012828 -0.015530 -0.002193
			-0.013084 -0.015560 -0.002645
			-0.013411 -0.015222 -0.001883
			-0.013646 -0.015221 -0.001137
			-0.016028 -0.014000 -0.002876
			-0.015662 -0.013283 -0.002216
			-0.016105 -0.013366 -0.002517
			-0.015123 -0.013024 -0.001532
			-0.014661 -0.013508 -0.000789
			-0.014037 -0.014720 -0.000674
			-0.014480 -0.014062 -0.000798
			-0.016421 -0.014810 -0.004455
			-0.016674 -0.012382 -0.002330
			-0.016636 -0.014100 -0.003723
			-0.016611 -0.013214 -0.003055
			-0.016001 -0.015203 -0.004584
			-0.015370 -0.015762 -0.004665
			-0.013976 -0.016083 -0.004458
			-0.014419 -0.016107 -0.004724
			-0.013750 -0.016278 -0.004955
			-0.012665 -0.015921 -0.004241
			-0.013285 -0.016177 -0.004660
			-0.012263 -0.015658 -0.003655
			-0.012332 -0.015549 -0.002789
			-0.013011 -0.015555 -0.001717
			-0.011186 -0.015169 -0.003213
			-0.011748 -0.015598 -0.001760
			-0.012330 -0.015684 -0.001637
			-0.013631 -0.015077 -0.000622
			-0.013101 -0.015487 -0.001167
			-0.015984 -0.012406 -0.001865
			-0.015269 -0.012342 -0.001127
			-0.014626 -0.013603  0.000096
			-0.015125 -0.012387 -0.000393
			-0.014418 -0.014209 -0.000202
			-0.013476 -0.014840 -0.000183
			-0.013868 -0.014544  0.000051
			-0.016715 -0.014370 -0.004536
			-0.016571 -0.014384 -0.005043
			-0.016981 -0.012403 -0.002809
			-0.016920 -0.011895 -0.002373
			-0.016477 -0.011753 -0.001848
			-0.016924 -0.013845 -0.004550
			-0.017105 -0.012703 -0.003596
			-0.015903 -0.015263 -0.005127
			-0.016187 -0.014813 -0.005201
			-0.015089 -0.015995 -0.005096
			-0.015467 -0.015639 -0.005244
			-0.014376 -0.016171 -0.005301
			-0.012883 -0.016131 -0.005003
			-0.013745 -0.016063 -0.005496
			-0.011774 -0.015465 -0.004505
			-0.012438 -0.015866 -0.004980
			-0.011539 -0.015236 -0.003730
			-0.011066 -0.015137 -0.002252
			-0.010918 -0.014770 -0.003855
			-0.010415 -0.014716 -0.002664
			-0.011251 -0.015332 -0.001812
			-0.011025 -0.015205 -0.001358
			-0.012036 -0.015245 -0.000838
			-0.011655 -0.015416 -0.001183
			-0.012429 -0.014656 -0.000008
			-0.015538 -0.011885 -0.001219
			-0.015143 -0.011628 -0.000092
			-0.014900 -0.012616  0.000730
			-0.014377 -0.013601  0.000686
			-0.015050 -0.011664  0.000839
			-0.014970 -0.012240  0.001061
			-0.013804 -0.014157  0.000465
			-0.012603 -0.014132  0.000588
			-0.013268 -0.014127  0.000596
			-0.016798 -0.013878 -0.005071
			-0.016295 -0.014266 -0.005445
			-0.017155 -0.011633 -0.003341
			-0.016777 -0.011308 -0.001886
			-0.016946 -0.010818 -0.002164
			-0.015983 -0.011608 -0.001466
			-0.016396 -0.011266 -0.001558